 LAMMPS data file for protein binding
 
         140   atoms
         139   bonds

          17   atom types
           1   bond types
 
  -250.000000       250.000000        xlo xhi
  -250.000000       250.000000        ylo yhi
  -250.000000       250.000000        zlo zhi
 
 Masses

            1  131.199997 
            2  115.099998 
            3  99.0699997 
            4  147.199997 
            5  128.199997 
            6  57.0499992 
            7  113.199997 
            8  87.0800018 
            9  71.0800018 
            9  113.199997 
           10  129.100006 
           11  101.099998 
           12  128.100006 
           13  163.199997 
           14  137.100006 
           15  114.099998 
           16  97.1200027 

 
 Atoms

         1          1           1        0.00    -236.200    -220.000    -240.000 
         2          1           2       -1.00    -232.400    -220.000    -240.000 
         3          1           3        0.00    -228.600    -220.000    -240.000 
         4          1           4        0.00    -224.800    -220.000    -240.000 
         5          1           1        0.00    -221.000    -220.000    -240.000 
         6          1           5        1.00    -217.200    -220.000    -240.000 
         7          1           6        0.00    -213.400    -220.000    -240.000 
         8          1           7        0.00    -209.600    -220.000    -240.000 
         9          1           8        0.00    -205.800    -220.000    -240.000 
        10          1           5        1.00    -202.000    -220.000    -240.000 
        11          1           9        0.00    -198.200    -220.000    -240.000 
        12          1           5        1.00    -194.400    -220.000    -240.000 
        13          1          10       -1.00    -190.600    -220.000    -240.000 
        14          1           6        0.00    -186.800    -220.000    -240.000 
        15          1           3        0.00    -183.000    -220.000    -240.000 
        16          1           3        0.00    -179.200    -220.000    -240.000 
        17          1           9        0.00    -175.400    -220.000    -240.000 
        18          1           9        0.00    -171.600    -220.000    -240.000 
        19          1           9        0.00    -167.800    -220.000    -240.000 
        20          1          10       -1.00    -164.000    -220.000    -240.000 
        21          1           5        1.00    -160.200    -220.000    -240.000 
        22          1          11        0.00    -156.400    -220.000    -240.000 
        23          1           5        1.00    -152.600    -220.000    -240.000 
        24          1          12        0.00    -148.800    -220.000    -240.000 
        25          1           6        0.00    -145.000    -220.000    -240.000 
        26          1           3        0.00    -141.200    -220.000    -240.000 
        27          1           9        0.00    -137.400    -220.000    -240.000 
        28          1          10       -1.00    -133.600    -220.000    -240.000 
        29          1           9        0.00    -129.800    -220.000    -240.000 
        30          1           9        0.00    -126.000    -220.000    -240.000 
        31          1           6        0.00    -122.200    -220.000    -240.000 
        32          1           5        1.00    -118.400    -220.000    -240.000 
        33          1          11        0.00    -114.600    -220.000    -240.000 
        34          1           5        1.00    -110.800    -220.000    -240.000 
        35          1          10       -1.00    -107.000    -220.000    -240.000 
        36          1           6        0.00    -103.200    -220.000    -240.000 
        37          1           3        0.00    -99.400    -220.000    -240.000 
        38          1           7        0.00    -95.600    -220.000    -240.000 
        39          1          13        0.00    -91.800    -220.000    -240.000 
        40          1           3        0.00    -88.000    -220.000    -240.000 
        41          1           6        0.00    -84.200    -220.000    -240.000 
        42          1           8        0.00    -80.400    -220.000    -240.000 
        43          1           5        1.00    -76.600    -220.000    -240.000 
        44          1          11        0.00    -72.800    -220.000    -240.000 
        45          1           5        1.00    -69.000    -220.000    -240.000 
        46          1          10       -1.00    -65.200    -220.000    -240.000 
        47          1           6        0.00    -61.400    -220.000    -240.000 
        48          1           3        0.00    -57.600    -220.000    -240.000 
        49          1           3        0.00    -53.800    -220.000    -240.000 
        50          1          14        0.50    -50.000    -220.000    -240.000 
        51          1           6        0.00    -46.200    -220.000    -240.000 
        52          1           3        0.00    -42.400    -220.000    -240.000 
        53          1           9        0.00    -38.600    -220.000    -240.000 
        54          1          11        0.00    -34.800    -220.000    -240.000 
        55          1           3        0.00    -31.000    -220.000    -240.000 
        56          1           9        0.00    -27.200    -220.000    -240.000 
        57          1          10       -1.00    -23.400    -220.000    -240.000 
        58          1           5        1.00    -19.600    -220.000    -240.000 
        59          1          11        0.00    -15.800    -220.000    -240.000 
        60          1           5        1.00    -12.000    -220.000    -240.000 
        61          1          10       -1.00    -8.200    -220.000    -240.000 
        62          1          12        0.00    -4.400    -220.000    -240.000 
        63          1           3        0.00    -0.600    -220.000    -240.000 
        64          1          11        0.00     3.200    -220.000    -240.000 
        65          1          15        0.00     7.000    -220.000    -240.000 
        66          1           3        0.00     10.800    -220.000    -240.000 
        67          1           6        0.00     14.600    -220.000    -240.000 
        68          1           6        0.00     18.400    -220.000    -240.000 
        69          1           9        0.00     22.200    -220.000    -240.000 
        70          1           3        0.00     26.000    -220.000    -240.000 
        71          1           3        0.00     29.800    -220.000    -240.000 
        72          1          11        0.00     33.600    -220.000    -240.000 
        73          1           6        0.00     37.400    -220.000    -240.000 
        74          1           3        0.00     41.200    -220.000    -240.000 
        75          1          11        0.00     45.000    -220.000    -240.000 
        76          1           9        0.00     48.800    -220.000    -240.000 
        77          1           3        0.00     52.600    -220.000    -240.000 
        78          1           9        0.00     56.400    -220.000    -240.000 
        79          1          12        0.00     60.200    -220.000    -240.000 
        80          1           5        1.00     64.000    -220.000    -240.000 
        81          1          11        0.00     67.800    -220.000    -240.000 
        82          1           3        0.00     71.600    -220.000    -240.000 
        83          1          10       -1.00     75.400    -220.000    -240.000 
        84          1           6        0.00     79.200    -220.000    -240.000 
        85          1           9        0.00     83.000    -220.000    -240.000 
        86          1           6        0.00     86.800    -220.000    -240.000 
        87          1           8        0.00     90.600    -220.000    -240.000 
        88          1           7        0.00     94.400    -220.000    -240.000 
        89          1           9        0.00     98.200    -220.000    -240.000 
        90          1           9        0.00     102.000    -220.000    -240.000 
        91          1           9        0.00     105.800    -220.000    -240.000 
        92          1          11        0.00     109.600    -220.000    -240.000 
        93          1           6        0.00     113.400    -220.000    -240.000 
        94          1           4        0.00     117.200    -220.000    -240.000 
        95          1           3        0.00     121.000    -220.000    -240.000 
        96          1           5        1.00     124.800    -220.000    -240.000 
        97          1           5        1.00     128.600    -220.000    -240.000 
        98          1           2       -1.00     132.400    -220.000    -240.000 
        99          1          12        0.00     136.200    -220.000    -240.000 
       100          1           7        0.00     140.000    -220.000    -240.000 
       101          1           6        0.00     143.800    -220.000    -240.000 
       102          1           5        1.00     147.600    -220.000    -240.000 
       103          1          15        0.00     151.400    -220.000    -240.000 
       104          1          10       -1.00     155.200    -220.000    -240.000 
       105          1          10       -1.00     159.000    -220.000    -240.000 
       106          1           6        0.00     162.800    -220.000    -240.000 
       107          1           9        0.00     166.600    -220.000    -240.000 
       108          1          16        0.00     170.400    -220.000    -240.000 
       109          1          12        0.00     174.200    -220.000    -240.000 
       110          1          10       -1.00     178.000    -220.000    -240.000 
       111          1           6        0.00     181.800    -220.000    -240.000 
       112          1           7        0.00     185.600    -220.000    -240.000 
       113          1           7        0.00     189.400    -220.000    -240.000 
       114          1          10       -1.00     193.200    -220.000    -240.000 
       115          1           2       -1.00     197.000    -220.000    -240.000 
       116          1           1        0.00     200.800    -220.000    -240.000 
       117          1          16        0.00     204.600    -220.000    -240.000 
       118          1           3        0.00     208.400    -220.000    -240.000 
       119          1           2       -1.00     212.200    -220.000    -240.000 
       120          1          16        0.00     216.000    -220.000    -240.000 
       121          1           2       -1.00     219.800    -220.000    -240.000 
       122          1          15        0.00     223.600    -220.000    -240.000 
       123          1          10       -1.00     227.400    -220.000    -240.000 
       124          1           9        0.00     231.200    -220.000    -240.000 
       125          1          13        0.00     235.000    -220.000    -240.000 
       126          1          10       -1.00     238.800    -220.000    -240.000 
       127          1           1        0.00     242.600    -220.000    -240.000 
       128          1          16        0.00     246.400    -220.000    -240.000 
       129          1           8        0.00     250.200    -220.000    -240.000 
       130          1          10       -1.00     254.000    -220.000    -240.000 
       131          1          10       -1.00     257.800    -220.000    -240.000 
       132          1           6        0.00     261.600    -220.000    -240.000 
       133          1          13        0.00     265.400    -220.000    -240.000 
       134          1          12        0.00     269.200    -220.000    -240.000 
       135          1           2       -1.00     273.000    -220.000    -240.000 
       136          1          13        0.00     276.800    -220.000    -240.000 
       137          1          10       -1.00     280.600    -220.000    -240.000 
       138          1          16        0.00     284.400    -220.000    -240.000 
       139          1          10       -1.00     288.200    -220.000    -240.000 
       140          1           9        0.00     292.000    -220.000    -240.000 

 
 Bonds
 
         1       1         1         2
         2       1         2         3
         3       1         3         4
         4       1         4         5
         5       1         5         6
         6       1         6         7
         7       1         7         8
         8       1         8         9
         9       1         9        10
        10       1        10        11
        11       1        11        12
        12       1        12        13
        13       1        13        14
        14       1        14        15
        15       1        15        16
        16       1        16        17
        17       1        17        18
        18       1        18        19
        19       1        19        20
        20       1        20        21
        21       1        21        22
        22       1        22        23
        23       1        23        24
        24       1        24        25
        25       1        25        26
        26       1        26        27
        27       1        27        28
        28       1        28        29
        29       1        29        30
        30       1        30        31
        31       1        31        32
        32       1        32        33
        33       1        33        34
        34       1        34        35
        35       1        35        36
        36       1        36        37
        37       1        37        38
        38       1        38        39
        39       1        39        40
        40       1        40        41
        41       1        41        42
        42       1        42        43
        43       1        43        44
        44       1        44        45
        45       1        45        46
        46       1        46        47
        47       1        47        48
        48       1        48        49
        49       1        49        50
        50       1        50        51
        51       1        51        52
        52       1        52        53
        53       1        53        54
        54       1        54        55
        55       1        55        56
        56       1        56        57
        57       1        57        58
        58       1        58        59
        59       1        59        60
        60       1        60        61
        61       1        61        62
        62       1        62        63
        63       1        63        64
        64       1        64        65
        65       1        65        66
        66       1        66        67
        67       1        67        68
        68       1        68        69
        69       1        69        70
        70       1        70        71
        71       1        71        72
        72       1        72        73
        73       1        73        74
        74       1        74        75
        75       1        75        76
        76       1        76        77
        77       1        77        78
        78       1        78        79
        79       1        79        80
        80       1        80        81
        81       1        81        82
        82       1        82        83
        83       1        83        84
        84       1        84        85
        85       1        85        86
        86       1        86        87
        87       1        87        88
        88       1        88        89
        89       1        89        90
        90       1        90        91
        91       1        91        92
        92       1        92        93
        93       1        93        94
        94       1        94        95
        95       1        95        96
        96       1        96        97
        97       1        97        98
        98       1        98        99
        99       1        99       100
       100       1       100       101
       101       1       101       102
       102       1       102       103
       103       1       103       104
       104       1       104       105
       105       1       105       106
       106       1       106       107
       107       1       107       108
       108       1       108       109
       109       1       109       110
       110       1       110       111
       111       1       111       112
       112       1       112       113
       113       1       113       114
       114       1       114       115
       115       1       115       116
       116       1       116       117
       117       1       117       118
       118       1       118       119
       119       1       119       120
       120       1       120       121
       121       1       121       122
       122       1       122       123
       123       1       123       124
       124       1       124       125
       125       1       125       126
       126       1       126       127
       127       1       127       128
       128       1       128       129
       129       1       129       130
       130       1       130       131
       131       1       131       132
       132       1       132       133
       133       1       133       134
       134       1       134       135
       135       1       135       136
       136       1       136       137
       137       1       137       138
       138       1       138       139
       139       1       139       140
