 LAMMPS data file for protein binding
 
         140   atoms
         139   bonds
 
          17   atom types
           1   bond types
 
  -250.000000       250.000000        xlo xhi
  -250.000000       250.000000        ylo yhi
  -250.000000       250.000000        zlo zhi
 
 Masses
 
           1   131.199997    
           2   115.099998    
           3   99.0699997    
           4   147.199997    
           5   128.199997    
           6   57.0499992    
           7   113.199997    
           8   87.0800018    
           9   71.0800018    
          10   129.100006    
          11   101.099998    
          12   128.100006    
          13   163.199997    
          14   137.100006    
          15   114.099998    
          16   113.199997    
          17   97.1200027    
 
 Atoms
 
       1          1          1       0.00    -25.252    -26.656    -33.005
       2          1          2      -1.00    -26.687    -23.175    -33.469
       3          1          3       0.00    -27.399    -20.732    -36.337
       4          1          4       0.00    -29.074    -18.040    -34.033
       5          1          1       0.00    -25.690    -17.924    -31.919
       6          1          5       1.00    -23.492    -18.415    -35.034
       7          1          6       0.00    -25.946    -16.493    -37.161
       8          1          7       0.00    -29.106    -14.706    -36.271
       9          1          8       0.00    -31.669    -16.510    -38.328
      10          1          5       1.00    -34.035    -18.383    -36.010
      11          1          9       0.00    -36.232    -20.271    -38.557
      12          1          5       1.00    -36.826    -17.254    -40.766
      13          1         10      -1.00    -35.680    -18.163    -44.341
      14          1          6       0.00    -35.451    -21.691    -45.822
      15          1          3       0.00    -34.924    -25.202    -44.502
      16          1          3       0.00    -31.220    -25.106    -45.417
      17          1          9       0.00    -31.013    -21.210    -45.375
      18          1          9       0.00    -31.237    -21.219    -41.540
      19          1          9       0.00    -30.240    -24.641    -40.600
      20          1         10      -1.00    -27.227    -24.468    -42.664
      21          1          5       1.00    -25.001    -25.381    -39.716
      22          1         11       0.00    -27.366    -27.372    -37.614
      23          1          5       1.00    -27.433    -30.290    -40.185
      24          1         12       0.00    -23.579    -29.908    -41.083
      25          1          6       0.00    -22.516    -29.486    -37.495
      26          1          3       0.00    -20.062    -31.779    -36.185
      27          1          9       0.00    -17.248    -29.515    -35.130
      28          1         10      -1.00    -16.932    -28.112    -38.629
      29          1          9       0.00    -19.768    -25.806    -38.693
      30          1          9       0.00    -20.875    -25.328    -35.002
      31          1          6       0.00    -19.272    -26.278    -31.700
      32          1          5       1.00    -21.706    -27.422    -28.884
      33          1         11       0.00    -19.063    -26.904    -26.290
      34          1          5       1.00    -16.112    -26.079    -28.553
      35          1         10      -1.00    -14.452    -22.553    -28.572
      36          1          6       0.00    -16.407    -19.566    -27.261
      37          1          3       0.00    -20.010    -18.321    -27.145
      38          1          7       0.00    -18.531    -14.829    -27.323
      39          1         13       0.00    -15.054    -15.666    -28.858
      40          1          3       0.00    -16.910    -17.020    -31.896
      41          1          6       0.00    -19.594    -14.279    -31.361
      42          1          8       0.00    -20.067    -10.930    -33.147
      43          1          5       1.00    -23.324    -11.939    -34.539
      44          1         11       0.00    -25.189    -12.802    -31.475
      45          1          5       1.00    -23.442    -10.122    -29.319
      46          1         10      -1.00    -21.918     -7.012    -30.561
      47          1          6       0.00    -18.290     -7.246    -31.479
      48          1          3       0.00    -15.589     -8.977    -29.439
      49          1          3       0.00    -16.043     -5.802    -27.148
      50          1         14       0.50    -19.081     -7.446    -25.626
      51          1          6       0.00    -17.490    -10.293    -23.808
      52          1          3       0.00    -14.034     -9.049    -23.033
      53          1          9       0.00    -15.036     -5.786    -20.981
      54          1         11       0.00    -17.071     -7.919    -18.587
      55          1          3       0.00    -14.313    -10.510    -17.936
      56          1          9       0.00    -11.992     -7.748    -16.817
      57          1         10      -1.00    -12.371     -6.809    -13.117
      58          1          5       1.00     -9.603     -4.357    -13.132
      59          1         11       0.00     -9.446     -1.716    -15.905
      60          1          5       1.00     -5.646     -1.257    -15.446
      61          1         10      -1.00     -2.926     -3.605    -14.408
      62          1         12       0.00      0.195     -1.384    -14.082
      63          1          3       0.00     -1.189      0.328    -10.968
      64          1         11       0.00     -1.249     -2.907     -8.967
      65          1         15       0.00      1.438     -4.703    -10.675
      66          1          3       0.00      3.675     -1.519    -10.091
      67          1          6       0.00      3.974      0.397     -6.876
      68          1          6       0.00      1.837      0.489     -3.817
      69          1          9       0.00      2.088      4.139     -2.604
      70          1          3       0.00      2.529      6.408     -5.526
      71          1          3       0.00     -0.802      8.089     -6.191
      72          1         11       0.00     -1.529      9.591     -2.844
      73          1          6       0.00      2.157     10.166     -2.118
      74          1          3       0.00      4.521     13.062     -2.346
      75          1         11       0.00      4.581     15.007     -5.539
      76          1          9       0.00      7.326     16.591     -7.594
      77          1          3       0.00     11.070     16.093     -6.722
      78          1          9       0.00     12.393     19.487     -5.661
      79          1         12       0.00     14.418     20.975     -2.862
      80          1          5       1.00     12.439     20.270      0.380
      81          1         11       0.00     13.198     20.634      4.124
      82          1          3       0.00     10.805     23.492      5.111
      83          1         10      -1.00      7.910     22.039      3.224
      84          1          6       0.00      9.063     18.460      3.617
      85          1          9       0.00      8.827     16.759      7.114
      86          1          6       0.00      9.864     16.977     10.709
      87          1          8       0.00     10.481     14.185     13.084
      88          1         16       0.00      8.392     11.093     13.341
      89          1          9       0.00      8.822      7.981     15.149
      90          1          9       0.00      6.788      5.086     16.365
      91          1          9       0.00      8.509      3.407     19.255
      92          1         11       0.00      9.467     -0.170     19.207
      93          1          6       0.00     10.808      0.498     22.592
      94          1          4       0.00      9.759      2.162     25.612
      95          1          3       0.00     12.645      4.618     25.421
      96          1          5       1.00     13.782      3.678     21.836
      97          1          5       1.00     12.585      5.609     18.724
      98          1          2      -1.00     11.143      7.830     21.247
      99          1         12       0.00     13.518     10.832     21.572
     100          1          7       0.00     12.420     11.797     17.995
     101          1          6       0.00      8.887     11.152     19.161
     102          1          5       1.00      9.105     13.216     22.269
     103          1         15       0.00     11.830     15.376     23.732
     104          1         10      -1.00     10.115     16.746     26.970
     105          1         10      -1.00      8.371     20.037     26.652
     106          1          6       0.00      5.650     19.869     29.490
     107          1          9       0.00      7.949     19.294     32.441
     108          1         17       0.00     10.662     22.096     32.735
     109          1         12       0.00      7.650     24.311     32.420
     110          1         10      -1.00      7.036     23.066     35.880
     111          1          6       0.00      9.839     21.855     38.020
     112          1         16       0.00     13.536     22.408     37.560
     113          1          7       0.00     15.917     19.484     37.567
     114          1         10      -1.00     18.801     21.178     35.839
     115          1          2      -1.00     20.082     23.256     38.797
     116          1          1       0.00     18.517     21.181     41.659
     117          1         17       0.00     22.040     19.861     42.606
     118          1          3       0.00     24.183     21.999     44.822
     119          1          2      -1.00     27.141     19.619     44.262
     120          1         17       0.00     28.333     20.495     40.647
     121          1          2      -1.00     27.574     24.221     41.185
     122          1         15       0.00     29.108     25.196     44.498
     123          1         10      -1.00     32.843     24.694     45.493
     124          1          9       0.00     33.293     21.576     47.800
     125          1         13       0.00     34.699     21.866     51.303
     126          1         10      -1.00     31.760     20.563     53.444
     127          1          1       0.00     30.562     17.435     51.736
     128          1         17       0.00     34.060     16.024     52.038
     129          1          8       0.00     34.272     16.497     55.720
     130          1         10      -1.00     37.182     15.838     57.958
     131          1         10      -1.00     36.530     13.833     61.013
     132          1          6       0.00     37.188     10.387     59.569
     133          1         13       0.00     40.376     11.945     58.085
     134          1         12       0.00     43.450     12.102     60.188
     135          1          2      -1.00     45.494      9.434     58.365
     136          1         13       0.00     43.912      9.805     54.899
     137          1         10      -1.00     45.265     13.381     54.542
     138          1         17       0.00     48.623     13.973     56.586
     139          1         10      -1.00     50.076     11.004     54.904
     140          1          9       0.00     48.629      9.597     51.635
 
 Bonds
 
       1       1       1       2
       2       1       2       3
       3       1       3       4
       4       1       4       5
       5       1       5       6
       6       1       6       7
       7       1       7       8
       8       1       8       9
       9       1       9      10
      10       1      10      11
      11       1      11      12
      12       1      12      13
      13       1      13      14
      14       1      14      15
      15       1      15      16
      16       1      16      17
      17       1      17      18
      18       1      18      19
      19       1      19      20
      20       1      20      21
      21       1      21      22
      22       1      22      23
      23       1      23      24
      24       1      24      25
      25       1      25      26
      26       1      26      27
      27       1      27      28
      28       1      28      29
      29       1      29      30
      30       1      30      31
      31       1      31      32
      32       1      32      33
      33       1      33      34
      34       1      34      35
      35       1      35      36
      36       1      36      37
      37       1      37      38
      38       1      38      39
      39       1      39      40
      40       1      40      41
      41       1      41      42
      42       1      42      43
      43       1      43      44
      44       1      44      45
      45       1      45      46
      46       1      46      47
      47       1      47      48
      48       1      48      49
      49       1      49      50
      50       1      50      51
      51       1      51      52
      52       1      52      53
      53       1      53      54
      54       1      54      55
      55       1      55      56
      56       1      56      57
      57       1      57      58
      58       1      58      59
      59       1      59      60
      60       1      60      61
      61       1      61      62
      62       1      62      63
      63       1      63      64
      64       1      64      65
      65       1      65      66
      66       1      66      67
      67       1      67      68
      68       1      68      69
      69       1      69      70
      70       1      70      71
      71       1      71      72
      72       1      72      73
      73       1      73      74
      74       1      74      75
      75       1      75      76
      76       1      76      77
      77       1      77      78
      78       1      78      79
      79       1      79      80
      80       1      80      81
      81       1      81      82
      82       1      82      83
      83       1      83      84
      84       1      84      85
      85       1      85      86
      86       1      86      87
      87       1      87      88
      88       1      88      89
      89       1      89      90
      90       1      90      91
      91       1      91      92
      92       1      92      93
      93       1      93      94
      94       1      94      95
      95       1      95      96
      96       1      96      97
      97       1      97      98
      98       1      98      99
      99       1      99     100
     100       1     100     101
     101       1     101     102
     102       1     102     103
     103       1     103     104
     104       1     104     105
     105       1     105     106
     106       1     106     107
     107       1     107     108
     108       1     108     109
     109       1     109     110
     110       1     110     111
     111       1     111     112
     112       1     112     113
     113       1     113     114
     114       1     114     115
     115       1     115     116
     116       1     116     117
     117       1     117     118
     118       1     118     119
     119       1     119     120
     120       1     120     121
     121       1     121     122
     122       1     122     123
     123       1     123     124
     124       1     124     125
     125       1     125     126
     126       1     126     127
     127       1     127     128
     128       1     128     129
     129       1     129     130
     130       1     130     131
     131       1     131     132
     132       1     132     133
     133       1     133     134
     134       1     134     135
     135       1     135     136
     136       1     136     137
     137       1     137     138
     138       1     138     139
     139       1     139     140
