ITEM: TIMESTEP
0
ITEM: NUMBER OF ATOMS
136
ITEM: BOX BOUNDS pp pp pp
-1.2500000000000000e+03 1.2500000000000000e+03
-1.2500000000000000e+03 1.2500000000000000e+03
-1.2500000000000000e+03 1.2500000000000000e+03
ITEM: ATOMS id type x y z
1 1 243.8 260 240
2 17 247.6 260 240
3 16 251.4 260 240
4 17 255.2 260 240
5 12 259 260 240
6 12 262.8 260 240
7 11 266.6 260 240
8 9 270.4 260 240
9 12 274.2 260 240
10 6 278 260 240
11 15 281.8 260 240
12 1 285.6 260 240
13 17 289.4 260 240
14 11 293.2 260 240
15 10 297 260 240
16 12 300.8 260 240
17 1 304.6 260 240
18 10 308.4 260 240
19 4 312.2 260 240
20 8 316 260 240
21 4 319.8 260 240
22 17 323.6 260 240
23 20 327.4 260 240
24 12 331.2 260 240
25 11 335 260 240
26 13 338.8 260 240
27 19 342.6 260 240
28 12 346.4 260 240
29 8 350.2 260 240
30 7 354 260 240
31 15 357.8 260 240
32 13 361.6 260 240
33 17 365.4 260 240
34 14 369.2 260 240
35 2 373 260 240
36 11 376.8 260 240
37 11 380.6 260 240
38 11 384.4 260 240
39 20 388.2 260 240
40 4 392 260 240
41 17 395.8 260 240
42 15 399.6 260 240
43 6 403.4 260 240
44 17 407.2 260 240
45 12 411 260 240
46 9 414.8 260 240
47 15 418.6 260 240
48 12 422.4 260 240
49 12 426.2 260 240
50 8 430 260 240
51 20 433.8 260 240
52 6 437.6 260 240
53 12 441.4 260 240
54 19 445.2 260 240
55 8 449 260 240
56 15 452.8 260 240
57 6 456.6 260 240
58 1 460.4 260 240
59 16 464.2 260 240
60 1 468 260 240
61 14 471.8 260 240
62 17 475.6 260 240
63 12 479.4 260 240
64 12 483.2 260 240
65 13 487 260 240
66 20 490.8 260 240
67 6 494.6 260 240
68 3 498.4 260 240
69 1 502.2 260 240
70 12 506 260 240
71 12 509.8 260 240
72 10 513.6 260 240
73 6 517.4 260 240
74 20 521.2 260 240
75 6 525 260 240
76 14 528.8 260 240
77 4 532.6 260 240
78 12 536.4 260 240
79 8 540.2 260 240
80 7 544 260 240
81 2 547.8 260 240
82 17 551.6 260 240
83 4 555.4 260 240
84 12 559.2 260 240
85 19 563 260 240
86 8 566.8 260 240
87 2 570.6 260 240
88 8 574.4 260 240
89 11 578.2 260 240
90 1 582 260 240
91 19 585.8 260 240
92 10 589.6 260 240
93 19 593.4 260 240
94 1 597.2 260 240
95 4 601 260 240
96 8 604.8 260 240
97 12 608.6 260 240
98 13 612.4 260 240
99 20 616.2 260 240
100 3 620 260 240
101 6 623.8 260 240
102 1 627.6 260 240
103 11 631.4 260 240
104 20 635.2 260 240
105 2 639 260 240
106 7 642.8 260 240
107 8 646.6 260 240
108 11 650.4 260 240
109 1 654.2 260 240
110 12 658 260 240
111 20 661.8 260 240
112 1 665.6 260 240
113 19 669.4 260 240
114 20 673.2 260 240
115 19 677 260 240
116 12 680.8 260 240
117 15 684.6 260 240
118 3 688.4 260 240
119 3 692.2 260 240
120 17 696 260 240
121 9 699.8 260 240
122 6 703.6 260 240
123 7 707.4 260 240
124 9 711.2 260 240
125 11 715 260 240
126 2 718.8 260 240
127 12 722.6 260 240
128 16 726.4 260 240
129 6 730.2 260 240
130 1 734 260 240
131 7 737.8 260 240
132 1 741.6 260 240
133 12 745.4 260 240
134 12 749.2 260 240
135 6 753 260 240
136 12 756.8 260 240
ITEM: TIMESTEP
10000
ITEM: NUMBER OF ATOMS
136
ITEM: BOX BOUNDS pp pp pp
-1.2500000000000000e+03 1.2500000000000000e+03
-1.2500000000000000e+03 1.2500000000000000e+03
-1.2500000000000000e+03 1.2500000000000000e+03
ITEM: ATOMS id type x y z
1 1 330.583 255.279 233.084
3 16 330.046 251.779 237.782
36 11 414.443 252.659 252.797
37 11 418.3 251.865 253.271
49 12 449.29 252.497 252.413
50 8 453.006 251.894 251.634
61 14 487.361 250.443 253.874
62 17 489.213 253.787 252.517
72 10 514.796 253.604 249.31
130 1 644.389 252.927 253.515
131 7 640.622 251.587 253.749
2 17 328.026 253.983 235.018
4 17 331.261 255.37 239.012
5 12 331.349 259.376 239.178
6 12 334.483 260.862 240.782
7 11 337.572 262.37 242.635
8 9 339.787 265.151 244.178
9 12 340.914 267.694 246.513
10 6 344.236 269.869 246.454
11 15 346.256 272.785 244.488
12 1 349.27 270.61 243.76
13 17 352.726 270.105 245.316
14 11 356.15 268.872 246.203
18 10 362.995 256.748 246.974
19 4 365.781 256.423 244.685
15 10 357.557 265.298 246.014
16 12 357.765 261.331 246.56
17 1 361.367 260.121 246.559
20 8 368.834 257.732 243.333
21 4 371.935 259.425 241.971
22 17 372.625 262.501 244.497
23 20 375.103 264.86 243.413
24 12 378.891 263.55 243.668
25 11 380.546 260.14 244.845
27 19 387.308 259.83 246.563
26 13 383.896 259.019 246.241
28 12 390.327 262.292 247.865
29 8 394.315 262.764 248.698
30 7 398.168 261.974 247.558
31 15 401.157 260.927 249.481
32 13 404.711 260.391 248.805
33 17 408.06 260.242 250.623
34 14 411.318 258.127 249.533
35 2 413.352 254.865 249.839
41 17 426.516 257.02 248.657
38 11 419.587 255.737 253.855
39 20 421.505 256.85 251.094
40 4 422.879 256.652 247.621
45 12 440.005 253.94 249.537
46 9 443.36 255.354 249.77
48 12 448.792 254.068 249.345
47 15 446.979 257.134 250.316
42 15 430.349 256.433 249.528
43 6 433.139 254.096 251.323
44 17 436.229 254.5 249.131
68 3 502.538 257.455 246.55
63 12 488.704 257.573 252.925
67 6 500.574 258.429 249.893
64 12 491.361 260.246 252.514
65 13 494.857 260.838 252.108
66 20 497.202 258.003 251.213
69 1 505.483 256.878 249.135
76 14 517.915 263.108 253.132
75 6 517.276 260.352 250.614
70 12 508.528 257.467 251.254
73 6 517.494 254.823 247.274
74 20 519.137 257.568 249.384
71 12 512.29 256.304 251.377
79 8 524.147 261.734 251.764
80 7 527.446 264.417 251.201
83 4 536.138 269.471 247.261
81 2 530.719 266.048 250.395
82 17 532.564 269.502 249.614
84 12 539.378 267.465 248.287
85 19 542.026 269.996 247.515
86 8 545.282 271.42 246.88
87 2 548.497 273.318 247.358
88 8 550.437 271.023 249.827
89 11 550.666 272.575 253.337
90 1 554.234 271.59 252.994
91 19 558.279 272.406 252.884
93 19 563.946 271.405 249.52
98 13 574.785 272.781 240.502
99 20 578.401 273.162 241.208
97 12 571.231 273.367 240.487
100 3 582.171 272.991 241.151
101 6 585.788 271.41 241.166
94 1 567.297 271.349 248.937
95 4 570.319 272.859 247.116
102 1 587.969 271.028 244.214
106 7 601.254 271.824 241.715
103 11 590.559 268.408 244.051
104 20 594.549 269.2 244.041
105 2 597.666 270.195 242.678
107 8 604.211 269.571 240.813
108 11 605.799 267.964 243.688
110 12 612.856 268.123 240.542
109 1 609.729 268.585 243.129
111 20 612.722 264.169 240.458
112 1 613.463 261.301 238.41
113 19 614.63 257.691 238.374
114 20 616.363 257.527 241.848
115 19 618.422 260.263 243.879
116 12 620.131 260.721 246.922
117 15 621.993 258.281 249.317
123 7 631.691 265.874 243.279
124 9 635.584 266.6 243.641
125 11 639.47 265.275 243.759
118 3 625.438 257.498 249.919
119 3 627.699 255.454 247.599
120 17 629.925 256.746 244.484
121 9 631.459 259.259 242.154
122 6 631.416 262.307 244.143
126 2 640.019 261.359 244.579
127 12 639.836 258.151 247.386
128 16 643.402 256.457 247.795
129 6 645.301 255.457 250.897
92 10 561.014 273.758 250.663
96 8 571.383 274.511 244.003
52 6 459.069 252.955 255.638
51 20 456.068 252.005 254.051
53 12 463.12 251.716 254.915
54 19 466.281 253.421 255.203
56 15 473.579 253.763 255.133
55 8 469.983 253.682 254.406
57 6 474.93 250.517 256.182
58 1 477.371 250.249 258.893
59 16 480.936 250.534 257.497
60 1 484.885 249.514 256.822
133 12 641.594 252.695 259.646
132 1 640.9 249.983 256.878
136 12 636.943 249.165 269.149
135 6 638.724 251.207 266.045
134 12 639.415 251.888 262.241
77 4 519.664 260.898 255.853
78 12 523.623 261.254 255.747
ITEM: TIMESTEP
20000
ITEM: NUMBER OF ATOMS
136
ITEM: BOX BOUNDS pp pp pp
-1.2500000000000000e+03 1.2500000000000000e+03
-1.2500000000000000e+03 1.2500000000000000e+03
-1.2500000000000000e+03 1.2500000000000000e+03
ITEM: ATOMS id type x y z
40 4 448.397 249.216 233.729
55 8 481.403 250.855 234.096
56 15 484.179 248.378 232.885
54 19 478.136 252.674 232.746
77 4 543.231 251.961 234.333
78 12 546.01 252.4 231.559
83 4 557.291 250.362 233.009
85 19 564.439 249.377 234.24
46 9 463.441 257.664 233.187
47 15 466.191 260.198 232.936
45 12 459.435 256.844 233.691
48 12 469.539 259.435 234.312
50 8 474.415 259.073 233.784
53 12 479.208 256.151 234.327
49 12 471.77 260.447 231.368
80 7 551.428 254.832 228.91
82 17 557.31 254.021 232.781
81 2 554.261 255.637 231.482
79 8 547.86 255.835 230.088
32 13 426.728 250.727 245.525
31 15 426.436 252.298 248.776
30 7 423.2 253.168 250.372
29 8 420.005 253.828 248.397
33 17 426.656 248.955 242.227
34 14 429.07 246.113 242.292
37 11 438.78 248.09 237.453
39 20 445.036 247.937 235.201
35 2 432.803 248.039 241.963
36 11 435.491 248.625 239.434
38 11 442.506 247.84 238.119
41 17 451.305 250.833 235.244
57 6 486.705 248.003 235.486
58 1 490.228 247.921 236.444
61 14 496.152 245.611 241.576
62 17 499.046 246.898 243.949
59 16 492.701 244.538 235.948
60 1 494.103 243.527 238.98
63 12 502.796 246.099 244.703
64 12 505.377 248.847 243.689
65 13 508.137 251.411 242.564
71 12 525.467 252.263 239.341
69 1 519.116 252.689 240.6
70 12 522.592 253.339 241.502
68 3 516.506 253.303 238.096
72 10 528.822 251.84 241.127
76 14 540.076 252.291 236.06
84 12 560.526 249.072 234.379
86 8 567.947 251.263 234.765
87 2 571.087 252.215 235.344
5 12 369.875 266.397 246.033
3 16 370.541 265.984 240.514
4 17 371.225 268.74 243.03
2 17 372.821 263.118 239.495
1 1 374.139 263.354 236.147
6 12 371.885 263.822 247.7
7 11 374.926 262.392 246.738
8 9 377.769 260.586 248.73
9 12 379.1 261.835 252.178
23 20 406.577 261.419 252.994
25 11 412.608 261.21 251.775
26 13 415.485 259.074 253.344
27 19 418.782 257.295 252.628
28 12 418.581 257.416 248.516
43 6 453.511 257.737 235.556
44 17 457.073 257.636 236.556
42 15 453.545 254.058 234.463
52 6 478.846 258.361 237.295
51 20 475.783 260.563 237.236
67 6 512.603 254.357 237.78
66 20 510.939 253.992 241.219
73 6 531.853 254.478 240.23
74 20 534.91 254.751 238.458
75 6 537.938 255.714 236.58
92 10 575.837 262.737 247.936
91 19 575.587 258.873 246.639
89 11 571.418 257.013 240.733
88 8 572.23 254.452 237.943
90 1 572.605 258.655 244.081
93 19 578.552 264.497 246.279
95 4 581.54 269.432 247.479
96 8 584.305 269.497 249.912
94 1 577.949 267.848 248.231
97 12 587.046 267.514 248.901
98 13 589.705 270.249 249.317
99 20 593.218 271.944 249.971
103 11 594.349 271.858 242.356
135 6 622.551 258.855 241.876
134 12 618.82 258.414 239.918
128 16 619.745 269.427 252.637
129 6 619.031 266.64 250.238
130 1 616.98 265.702 247.128
131 7 615.907 267.111 244.058
133 12 616.328 259.878 242.502
132 1 617.306 263.917 242.283
136 12 625.943 257.267 240.73
104 20 592.959 273.523 239.421
105 2 595.063 275.2 236.963
106 7 598.871 276.04 236.261
107 8 599.833 275.872 240.017
108 11 603.778 275.921 241.283
100 3 593.101 275.642 248.68
101 6 594.434 277.681 245.764
102 1 596.387 274.495 244.581
109 1 607.971 276.161 240.876
110 12 611.604 275.703 242.409
114 20 623.303 276.744 248.793
111 20 613.483 277.233 245.635
113 19 619.439 276.627 248.436
112 1 617.157 277.503 245.218
115 19 625.699 279.463 249.655
116 12 626.607 282.035 252.277
11 15 376.006 265.946 257.213
12 1 376.531 264.73 260.198
13 17 378.596 262.441 262.11
10 6 377.937 263.978 254.764
14 11 381.946 261.596 261.248
16 12 388.467 263.172 258.435
15 10 384.93 261.46 258.593
22 17 404.983 259.907 255.934
21 4 402.377 262.156 257.019
24 12 409.706 262.19 254.218
18 10 394.794 260.195 259.875
19 4 397.821 261.785 261.007
20 8 399.695 259.796 258.392
17 1 391.97 262.481 260.524
127 12 616.541 269.929 254.268
126 2 614.577 266.896 255.048
125 11 612.867 265.347 258.061
123 7 616.572 266.666 262.698
124 9 613.437 267.455 260.85
122 6 618.035 270.088 263.931
121 9 621.476 270.939 262.47
117 15 624.674 281.464 255.446
118 3 622.47 279.193 257.15
120 17 621.305 273.631 260.217
119 3 619.821 276.658 257.967
ITEM: TIMESTEP
30000
ITEM: NUMBER OF ATOMS
136
ITEM: BOX BOUNDS pp pp pp
-1.2500000000000000e+03 1.2500000000000000e+03
-1.2500000000000000e+03 1.2500000000000000e+03
-1.2500000000000000e+03 1.2500000000000000e+03
ITEM: ATOMS id type x y z
41 17 444.174 255.228 232.33
42 15 443.271 256.389 228.626
40 4 443.909 258.854 234.049
43 6 445.183 254.249 226.28
44 17 447.327 257.454 225.344
45 12 448.61 259.701 228.018
47 15 455.876 259.528 229.133
49 12 462.639 261.87 228.954
50 8 466.223 260.815 229.049
48 12 458.802 261.954 228.971
46 9 452.501 260.039 227.886
52 6 472.181 263.898 231.086
53 12 475.812 265.326 231.555
51 20 469.759 262.1 228.891
55 8 479.297 271.054 228.87
57 6 483.815 273.213 227.869
54 19 479.157 267.482 230.511
59 16 488.083 271.193 230.78
60 1 490.441 272.909 233.12
65 13 501.501 267.236 232.416
66 20 505.267 266.662 231.315
61 14 494.281 271.991 233.811
67 6 508.944 266.19 232.027
58 1 487.597 273.547 228.572
56 15 480.833 274.65 229.333
72 10 514.974 253.077 237.547
73 6 518.101 253.462 239.75
4 17 372.558 258.688 252.765
20 8 408.344 270.925 248.631
17 1 401.078 271.887 251.074
15 10 394.955 272.822 247.854
19 4 407.338 272.141 251.855
22 17 414.655 266.609 248.428
23 20 413.399 263.389 250.363
21 4 411.927 269.507 248.021
26 13 422.035 260.068 249.845
27 19 425.858 261.456 250.449
28 12 429.363 262.135 252.696
24 12 415.741 260.467 251.377
25 11 419.327 262.146 251.258
32 13 427.715 272.09 244.501
30 7 427.3 268.145 250.376
31 15 425.72 270.271 247.483
29 8 430.17 265.912 251.842
39 20 444.316 262.567 234.846
38 11 443.393 265.512 236.631
33 17 431.534 273.326 244.302
34 14 435.118 273.113 245.051
37 11 441.668 267.838 239.076
35 2 437.48 271.347 242.819
36 11 439.514 267.989 242.181
62 17 497.008 273.138 236.096
64 12 500.318 268.506 236.228
63 12 498.361 270.551 238.7
68 3 508.352 263.613 234.752
69 1 511.462 261.946 236.152
70 12 512.372 258.172 234.624
71 12 511.771 254.527 236.042
74 20 520.975 255.132 238.456
75 6 524.547 256.225 238.941
76 14 527.109 258.539 237.936
77 4 529.859 259.719 239.998
79 8 534.224 260.109 243.986
82 17 542.717 260.44 242.166
78 12 533.073 257.739 241.22
80 7 536.984 262.459 243.233
81 2 539.326 261.353 240.638
83 4 545.046 261.704 244.746
84 12 545.92 260.847 248.315
89 11 562.899 259.792 248.724
90 1 564.32 261.18 252.055
88 8 559.62 259.414 247.015
87 2 556.497 261.535 247.27
85 19 549.396 260.781 249.934
86 8 552.747 260.367 248.894
91 19 566.821 264.005 252.135
94 1 572.504 270.675 253.655
96 8 569.537 272.575 250.089
97 12 568.015 272.351 246.655
12 1 388.362 273.668 251.746
13 17 388.728 274.322 248.15
16 12 397.997 273.57 249.533
18 10 404.116 274.071 252.354
14 11 391.778 274.516 246.263
95 4 569.889 273.963 253.846
98 13 568.427 274.087 243.309
99 20 572.314 273.5 242.977
100 3 575.346 274.643 241.565
101 6 578.24 275.167 239.309
102 1 581.024 276.092 236.761
104 20 581.694 282.697 236.301
103 11 580.122 279.253 235.073
105 2 584.897 284.646 237.77
106 7 587.135 285.649 235.137
107 8 590.511 285.811 236.76
108 11 592.339 283.579 239.309
109 1 593.372 279.967 239.901
110 12 596.084 277.526 238.882
112 1 600.899 280.333 242.819
111 20 599.262 277.213 241.193
113 19 598.293 282.76 244.244
114 20 599.999 284.737 247.406
115 19 603.445 286.376 247.704
116 12 604.964 290.048 247.352
123 7 618.952 287.4 252.73
122 6 615.277 288.619 253.465
121 9 614.317 291.441 251.148
120 17 612.093 294.153 252.837
119 3 612.371 296.57 249.798
118 3 609.853 295.097 247.631
117 15 606.921 293.341 246.06
2 17 370.266 256.397 257.826
1 1 372.293 257.288 260.494
5 12 376.163 259.62 254.084
3 16 371.103 255.468 254.026
6 12 379.348 262.018 254.575
7 11 380.619 264.904 257.053
8 9 384.387 265.777 257.133
9 12 388.392 265.873 257.39
10 6 389.123 269.436 256.714
11 15 389.981 272.824 254.963
92 10 569.726 264.412 254.394
93 19 571.172 267.821 255.419
136 12 604.516 265.153 264.368
135 6 604.739 268.983 265.203
134 12 602.553 272.321 264.47
133 12 598.966 272.428 263.208
132 1 598.076 276.274 262.612
131 7 600.877 278.096 260.862
130 1 602.9 278.519 257.755
124 9 619.424 284.554 254.692
125 11 617.013 282.963 257.373
126 2 614.52 279.98 257.618
127 12 612.996 276.748 257.522
128 16 609.356 276.165 257.255
129 6 606.493 278.128 259.137
ITEM: TIMESTEP
40000
ITEM: NUMBER OF ATOMS
136
ITEM: BOX BOUNDS pp pp pp
-1.2500000000000000e+03 1.2500000000000000e+03
-1.2500000000000000e+03 1.2500000000000000e+03
-1.2500000000000000e+03 1.2500000000000000e+03
ITEM: ATOMS id type x y z
22 17 408.187 248.52 228.698
21 4 406.979 245.195 229.608
23 20 411.351 250.529 228.951
24 12 411.525 253.825 231.202
20 8 410.305 243.832 228.806
18 10 414.367 246.571 234.097
19 4 413.118 244.033 231.577
51 20 486.022 252.463 233.832
49 12 483.219 252.168 229.072
50 8 485.85 250.05 230.723
63 12 505.737 249.251 216.843
64 12 506.869 251.39 219.682
62 17 502.446 247.099 216.725
61 14 499.871 247.192 219.964
59 16 501.692 253.378 222.907
60 1 499.759 250.746 220.939
65 13 508.472 252.677 223.224
25 11 413.215 256.905 231.577
26 13 416.932 258.164 230.645
27 19 419.161 256.169 233.221
29 8 425.411 259.489 232.888
28 12 422.348 258.114 234.32
30 7 429.229 260.441 232.635
33 17 438.608 261.674 233.925
32 13 435.291 261.518 232.883
31 15 432.431 258.714 232.397
40 4 461.061 262.845 234.279
44 17 473.516 261.325 232.151
45 12 477.307 260.54 231.332
46 9 481.326 260.795 232.038
47 15 484.358 259.483 230.292
48 12 484.359 256.005 228.64
57 6 497.728 254.088 227.883
58 1 500.941 255.198 226.184
56 15 498.361 255.036 231.488
66 20 509.654 256.303 223.646
67 6 512.053 258.894 224.54
68 3 515.383 260.187 225.911
69 1 518.421 259.057 227.424
70 12 521.289 257.503 229.574
71 12 523.734 259.556 232.139
72 10 527.14 261.399 230.68
74 20 525.488 267.758 231.032
73 6 528.226 265.046 231.245
5 12 388.124 250.109 250.207
4 17 384.952 249.905 252.588
3 16 381.248 250.435 252.484
6 12 388.283 248.141 246.983
7 11 390.15 245.054 247.953
2 17 380.429 253.771 253.316
15 10 405.852 245.249 237.252
12 1 397.635 247.291 235.911
14 11 402.971 247.734 238.113
13 17 401.039 247.662 234.856
8 9 393.713 243.886 247.317
9 12 394.408 243.874 243.615
10 6 396.249 245.678 241.146
11 15 394.879 248.688 238.711
16 12 407.831 247.533 234.854
17 1 411.518 247.438 236.623
52 6 487.557 253.688 236.715
34 14 441.416 262.276 236.334
35 2 445.137 262.971 236.331
36 11 448.582 262.617 238.176
42 15 467.054 262.365 235.216
41 17 463.996 261.949 236.765
39 20 458.448 260.645 235.268
37 11 452.167 263.789 238.11
38 11 455.109 261.67 236.837
43 6 470.546 260.799 234.446
53 12 491.443 254.944 236.61
54 19 495.436 254.531 236.667
55 8 497.932 256.828 234.831
78 12 525.854 270.903 242.966
76 14 523.138 268.178 236.935
77 4 523.512 270.36 240.027
75 6 525.521 269.58 234.494
79 8 528.938 272.033 241.114
85 19 533.784 273.3 244.236
80 7 531.36 271.413 238.529
81 2 534.724 272.042 236.833
86 8 535.468 270.995 246.174
87 2 539.324 271.063 246.917
84 12 533.123 276.818 243.149
82 17 536.16 274.993 238.175
83 4 536.414 277.237 241.034
89 11 542.636 278.071 245.443
90 1 544.37 279.502 248.293
88 8 540.582 274.558 245.505
92 10 547.685 277.657 252.166
91 19 547.75 280.556 249.593
1 1 381.919 256.242 255.917
106 7 565.224 271.309 264.353
110 12 575.063 269.908 261.855
111 20 578.389 271.173 260.459
107 8 568.155 272.764 266.175
114 20 587.064 271.263 261.932
115 19 590.679 271.32 260.471
116 12 592.739 272.326 257.472
93 19 550.065 277.262 255.259
95 4 554.115 273.522 255.57
94 1 554.09 277.282 255.056
96 8 557.592 273.861 254.947
97 12 560.89 274.432 256.602
98 13 559.302 276.584 259.297
99 20 559 278.726 262.346
100 3 561.69 281.246 262.517
101 6 561.8 284.157 265.084
102 1 562.753 282.522 268.604
103 11 562.303 278.693 267.482
104 20 564.832 277.383 265.701
105 2 563.674 274.641 263.024
113 19 584.855 274.482 261.378
112 1 581.526 273.727 259.832
108 11 571.334 274.742 265.614
109 1 574.385 273.633 263.277
118 3 594.403 278.396 258.23
120 17 593.608 283.324 260.746
119 3 593.878 279.732 261.909
117 15 595.724 274.802 257.749
123 7 598.998 283.153 265.923
124 9 602.533 283.602 267.219
121 9 593.063 286.164 262.974
122 6 596.579 285.718 264.705
125 11 605.415 285.347 265.192
127 12 610.81 285.461 261.813
128 16 614.718 285.556 263.1
126 2 607.45 285.895 261.975
130 1 619.178 285.567 267.669
129 6 618.943 285.185 263.879
131 7 622.951 286.108 268.953
132 1 625.797 285.147 266.539
133 12 628.52 282.625 267.091
135 6 632.175 280.329 271.736
134 12 628.932 279.833 269.907
136 12 633.378 280.879 275.231
ITEM: TIMESTEP
50000
ITEM: NUMBER OF ATOMS
136
ITEM: BOX BOUNDS pp pp pp
-1.2500000000000000e+03 1.2500000000000000e+03
-1.2500000000000000e+03 1.2500000000000000e+03
-1.2500000000000000e+03 1.2500000000000000e+03
ITEM: ATOMS id type x y z
23 20 433.259 242.351 233.213
22 17 432.514 238.508 233.362
35 2 446.926 263.532 232.006
36 11 450.027 263.848 229.756
38 11 456.493 265.774 229.998
37 11 452.826 266.477 229.11
39 20 458.06 266.808 233.363
54 19 476.298 260.661 224.749
53 12 474.333 260.464 228.054
55 8 479.8 261.309 226.533
58 1 486.145 259.408 233.807
56 15 480.862 260.951 230.025
57 6 484.551 259.98 230.367
52 6 476.19 257.829 230.185
51 20 476.351 257.69 233.889
62 17 498.334 256.735 233.341
59 16 489.945 260.253 234.329
63 12 500.421 259.012 231.383
64 12 503.954 260.437 231.858
65 13 504.493 264.271 231.406
68 3 506.958 270.697 229.358
66 20 508.033 265.3 230.592
67 6 508.276 268.762 231.99
70 12 511.445 269.983 224.24
69 1 508.092 270.391 225.612
73 6 519.38 267.296 227.06
72 10 516.443 269.285 228.617
71 12 514.043 271.521 226.679
74 20 522.634 268.388 229.405
75 6 524.998 271.567 228.865
93 19 543.621 271.138 233.35
95 4 545.331 269.092 226.72
94 1 545.199 271.38 229.941
96 8 546.866 267.537 229.893
100 3 559.225 271.541 227.949
97 12 550.12 267.832 231.692
98 13 552.428 270.625 230.035
99 20 555.219 270.733 227.645
102 1 557.42 269.358 233.893
101 6 559.675 271.591 231.57
77 4 523.564 275.239 233.205
78 12 526.778 277.277 233.953
76 14 522.457 274.413 229.885
81 2 536.646 273.47 232.884
80 7 533.011 274.455 232.14
82 17 538.362 274.73 229.536
83 4 537.883 278.53 230.445
84 12 539.289 281.588 228.691
79 8 529.56 275.098 232.706
85 19 543.018 281.842 230.056
87 2 549.888 281.866 231.609
86 8 546.887 281.407 229.656
18 10 425.153 229.393 238.033
19 4 426.985 230.675 235.472
15 10 429.661 234.282 244.416
16 12 428.534 230.703 243.538
17 1 428.691 229.2 239.954
20 8 430.301 232.423 235.546
12 1 423.712 240.726 242.662
14 11 427.524 237.269 242.663
13 17 427.377 241.114 242.751
8 9 425.846 244.29 253.128
9 12 425.135 240.798 251.703
10 6 424.991 239.893 248.108
11 15 422.511 241.996 246.147
7 11 423.173 246.341 251.739
6 12 423.188 250.032 253.549
29 8 442.737 252.536 240.361
24 12 431.665 244.502 236.123
21 4 430.572 236.076 235.594
25 11 433.39 245.034 239.283
27 19 438.28 248.985 237.565
28 12 439.329 252.259 239.021
26 13 437.112 245.79 239.606
30 7 445.736 254.703 238.957
33 17 447.821 260.454 238.788
34 14 446.897 262.341 235.664
31 15 449.451 254.002 239.509
32 13 450.877 258.041 239.609
42 15 466.382 262.714 240.109
41 17 463.833 265.11 238.323
40 4 461.168 266.412 235.804
47 15 476.51 258.387 243.648
48 12 474.741 255.865 241.796
50 8 473.519 255.666 235.974
49 12 472.224 254.204 239.26
46 9 476.077 258.955 246.882
43 6 469.409 262.952 242.224
44 17 469.701 261.068 245.781
45 12 473.305 261.833 246.985
61 14 495.559 256 235.891
60 1 492.063 256.714 234.648
92 10 544.639 271.99 237.267
103 11 557.618 271.512 237.217
104 20 561.165 271.855 238.98
105 2 564.378 270.036 238.416
107 8 564.255 271.425 244.983
106 7 566.426 269.79 241.769
122 6 576.436 273.424 250.906
123 7 578.726 272.913 247.566
91 19 543.453 275.438 238.91
90 1 546.298 277.554 237.264
89 11 549.935 278.123 236.889
88 8 550.772 281.099 235.123
108 11 566.373 273.89 246.566
111 20 565.494 282.4 248.4
109 1 567.76 277.493 247.46
110 12 567.001 280.618 245.171
113 19 567.76 288.868 250.176
112 1 567.593 285.457 248.925
114 20 571.397 289.508 250.973
115 19 574.333 288.981 253.62
124 9 580.649 275.994 246.064
125 11 579.519 279.315 245.003
119 3 570.7 280.694 253.208
120 17 570.084 276.754 253.103
121 9 573.47 274.886 252.488
128 16 579.542 287.763 251.213
126 2 579.884 281.894 247.669
127 12 578.684 285.555 248.173
5 12 423.97 252.468 256.165
3 16 430.438 253.471 259.457
4 17 426.713 254.061 258.455
2 17 430.008 253.956 263.45
1 1 432.197 256.108 265.969
118 3 569.335 282.318 256.395
116 12 574.526 287.421 256.881
117 15 572.139 284.49 256.925
130 1 581.241 291.35 256.446
129 6 580.979 287.844 254.553
131 7 580.596 295.068 257.979
134 12 577.243 301.91 262.536
135 6 578.566 301.577 266.194
132 1 579.148 298.302 256.491
133 12 577.166 300.294 259.277
136 12 579.046 300.13 269.843
ITEM: TIMESTEP
60000
ITEM: NUMBER OF ATOMS
136
ITEM: BOX BOUNDS pp pp pp
-1.2500000000000000e+03 1.2500000000000000e+03
-1.2500000000000000e+03 1.2500000000000000e+03
-1.2500000000000000e+03 1.2500000000000000e+03
ITEM: ATOMS id type x y z
17 1 431.055 253.477 229.796
16 12 429.787 253.635 233.593
81 2 525.185 251.535 233.765
82 17 528.395 253.183 232.043
27 19 442.901 261.791 229.143
21 4 436.354 264.139 225.819
19 4 437.623 257.343 227.428
22 17 436.897 265.066 229.271
23 20 437.417 267.251 232.701
24 12 440.004 269.578 233.784
20 8 435.478 260.697 227.185
25 11 443.121 267.487 233.36
26 13 444.613 264.533 231.627
18 10 434.907 254.736 229.069
29 8 445.269 256.235 230.344
28 12 445.714 259.215 228.264
30 7 446.568 256.593 233.619
84 12 531.191 259.22 233.071
85 19 533.426 262.11 231.429
86 8 532.957 265.266 229.083
87 2 532.551 268.831 228.458
95 4 540.72 265.027 231.724
83 4 530.964 255.736 231.362
98 13 543.02 273.042 224.9
97 12 540.33 270.72 227.088
96 8 540.597 268.227 230.231
88 8 535.448 271.498 227.203
91 19 542.156 273.596 233.919
90 1 539.209 273.865 231.124
99 20 546.473 274.505 226.562
89 11 536.924 275.062 228.131
100 3 550.208 273.987 226.778
101 6 551.579 274.241 223.35
102 1 552.51 277.853 223.798
106 7 551.428 286.469 226.448
107 8 552.839 290.415 226.011
108 11 551.16 292.284 222.845
103 11 556.118 278.5 224.555
104 20 555.891 281.973 222.74
105 2 552.862 283.637 224.827
109 1 554.913 292.586 221.4
110 12 557.978 292.042 223.947
111 20 559.695 295.348 224.459
112 1 558.057 296.917 227.694
113 19 558.563 298.231 231.328
5 12 420.107 247.713 250.265
4 17 418.691 251.22 251.293
3 16 420.501 253.445 248.98
6 12 419.749 244.578 252.677
11 15 427.704 246.707 245.267
12 1 427.172 250.703 245.597
10 6 426.584 245.94 248.914
9 12 427.655 245.407 252.445
13 17 430.653 251.825 244.241
14 11 431.215 250.997 240.597
15 10 429.749 252.457 237.119
35 2 443.997 253.816 243.039
38 11 453.673 252.046 243.065
62 17 484.275 252.862 244.827
63 12 487.251 250.933 245.097
70 12 504.037 247.129 237.736
68 3 498.228 245.576 238.197
67 6 497.454 242.873 240.756
66 20 493.875 243.59 241.588
65 13 491.901 247.258 242.025
69 1 500.911 247.615 239.256
71 12 506.315 246.501 240.511
64 12 489.259 248.234 244.71
80 7 525.783 253.113 237.171
72 10 508.695 243.426 240.266
73 6 511.386 244.858 237.439
75 6 515.558 248.995 236.213
76 14 515.011 252.601 237.882
74 20 515.43 244.972 236.578
1 1 424.561 255.655 245.614
2 17 421.067 255.302 245.903
36 11 447.271 255.55 241.92
31 15 443.414 257.426 235.951
32 13 439.896 257.941 235.26
33 17 438.565 257.053 238.663
34 14 441.544 255.96 241.149
37 11 450.56 254.607 243.383
39 20 456.557 254.398 242.844
40 4 456.548 257.453 244.909
42 15 461.413 260.905 241.652
43 6 460.638 263.878 239.895
46 9 466.134 264.55 244.942
44 17 459.5 266.076 242.926
45 12 462.74 266.036 245.265
47 15 468.163 266.325 242.661
41 17 458.332 260.043 243.438
61 14 484.202 256.318 243.437
50 8 475.071 273.325 239.738
49 12 471.937 272.251 241.174
48 12 468.806 269.842 240.662
51 20 477.784 270.67 240.421
53 12 482.665 267.495 238.277
52 6 480.81 270.502 238.051
54 19 482.487 264.16 240.097
55 8 478.948 265.387 241.847
56 15 475.34 264.336 241.972
58 1 478.789 261.617 244.875
57 6 475.365 262.934 245.51
59 16 482.576 263.068 245.862
60 1 483.092 259.507 244.847
77 4 517.067 255.614 239.168
79 8 522.553 254.714 238.113
78 12 520.109 254.473 240.892
92 10 540.061 272.082 236.674
94 1 541.012 265.723 235.508
93 19 540.527 268.511 237.871
135 6 557.407 288.207 252.13
136 12 557.589 285.159 249.87
122 6 562.687 291.294 252.569
117 15 549.968 296.343 243.636
116 12 553.06 295.758 241.076
114 20 556.737 298.176 234.901
115 19 555.289 296.505 237.906
119 3 553.145 294.364 248.716
118 3 550.606 296.979 247.54
120 17 556.771 293.338 249.183
121 9 559.943 293.667 251.298
8 9 425.622 245.828 255.777
7 11 421.907 245.201 255.642
134 12 557.054 288.759 255.832
133 12 554.416 289.081 258.407
129 6 560.998 281.333 262.297
130 1 559.903 284.998 262.089
131 7 559.881 288.801 262.146
132 1 556.324 290.142 261.443
128 16 563.826 282.996 264.36
125 11 566.132 289.545 259.106
124 9 567.169 291.971 256.305
126 2 568.084 288.273 262.261
127 12 567.002 285.486 264.59
123 7 564.985 293.652 254.028
ITEM: TIMESTEP
70000
ITEM: NUMBER OF ATOMS
136
ITEM: BOX BOUNDS pp pp pp
-1.2500000000000000e+03 1.2500000000000000e+03
-1.2500000000000000e+03 1.2500000000000000e+03
-1.2500000000000000e+03 1.2500000000000000e+03
ITEM: ATOMS id type x y z
4 17 422.02 233.723 220.878
3 16 424.327 230.758 221.013
1 1 421.02 225.575 220.512
2 17 424.201 227.013 222.192
13 17 443.763 233.994 231.998
16 12 442.306 232.781 221.108
15 10 442.138 233.479 224.648
12 1 440.596 232.666 233.935
11 15 437.995 233.933 231.561
5 12 420.891 236.853 223.412
6 12 424.373 238.692 223.205
7 11 426.476 235.372 224.351
18 10 445.107 238.68 219.933
19 4 444.565 242.144 218.802
20 8 447.892 243.746 220
14 11 443.957 234.657 228.023
10 6 434.853 234.904 229.789
26 13 446.088 252.614 222.565
27 19 443.347 252.846 225.211
28 12 443.521 253.556 228.958
29 8 440.531 253.665 231.579
17 1 442.089 236.375 219.781
8 9 430.181 235.748 225.508
9 12 433.267 237.333 227.187
22 17 453.609 245.249 222.334
23 20 455.342 248.699 222.937
24 12 452.625 251.196 222.428
21 4 450.393 243.104 222.762
25 11 449.295 252.783 221.106
30 7 440.563 256.62 233.981
34 14 434.44 249.236 242.309
35 2 435.912 249.572 245.97
36 11 439.282 251.284 247.475
37 11 440.851 253.723 250.049
38 11 444.361 253.268 250.895
32 13 437.607 253.798 237.536
33 17 435.957 252.148 240.633
56 15 478.003 248.825 242.568
54 19 470.475 251.157 240.961
55 8 474.02 249.122 242.128
63 12 486.221 251.009 249.603
57 6 478.576 249.718 246.127
58 1 476.507 252.521 247.705
62 17 484.837 253.019 246.68
64 12 489.845 251.552 249.23
65 13 491.97 253.758 247.294
31 15 440.408 256.613 237.652
39 20 446.791 255.903 252.466