LAMMPS (7 Aug 2019)
OMP_NUM_THREADS environment is not set. Defaulting to 1 thread. (src/comm.cpp:93)
  using 1 OpenMP thread(s) per MPI task
units       real
dimension   3
boundary    p p p
atom_style  full

bond_style  harmonic
pair_style  ljlambda 0.103 0.0 35.0
dielectric  80.0

read_data   data.data
  orthogonal box = (-1250 -1250 -1250) to (1250 1250 1250)
  2 by 2 by 2 MPI processor grid
  reading atoms ...
  136 atoms
  scanning bonds ...
  1 = max bonds/atom
  reading bonds ...
  135 bonds
  2 = max # of 1-2 neighbors
  2 = max # of 1-3 neighbors
  4 = max # of 1-4 neighbors
  6 = max # of special neighbors
  special bonds CPU = 0.0138382 secs
  read_data CPU = 0.165295 secs

bond_coeff          1     9.600     3.8

pair_coeff          *       *       0.000000   0.000    0.000000   0.000   0.000
pair_coeff          1       1        0.200000   5.040    0.729730  15.120   0.000
pair_coeff          1       2        0.200000   5.800    0.364865  17.400   0.000
pair_coeff          1       3        0.200000   5.360    0.581081  16.080   0.000
pair_coeff          1       4        0.200000   5.310    0.554054  15.930   0.000
pair_coeff          1       5        0.200000   5.260    0.662162  15.780   0.000
pair_coeff          1       6        0.200000   5.480    0.594595  16.440   0.000
pair_coeff          1       7        0.200000   5.530    0.621622  16.590   0.000
pair_coeff          1       8        0.200000   4.770    0.689190  14.310   0.000
pair_coeff          1       9        0.200000   5.560    0.621622  16.680   0.000
pair_coeff          1      10        0.200000   5.610    0.851352  16.830   0.000
pair_coeff          1      11        0.200000   5.610    0.851352  16.830   0.000
pair_coeff          1      12        0.200000   5.700    0.621622  17.100   0.000
pair_coeff          1      13        0.200000   5.610    0.783784  16.830   0.000
pair_coeff          1      14        0.200000   5.700    0.864865  17.100   0.000
pair_coeff          1      15        0.200000   5.300    0.864865  15.900   0.000
pair_coeff          1      16        0.200000   5.110    0.662162  15.330   0.000
pair_coeff          1      17        0.200000   5.330    0.702703  15.990   0.000
pair_coeff          1      18        0.200000   5.910    0.837838  17.730   0.000
pair_coeff          1      19        0.200000   5.750    0.797297  17.250   0.000
pair_coeff          1      20        0.200000   5.450    0.810811  16.350   0.000
pair_coeff          2       2        0.200000   6.560    0.000000  19.680  35.000
pair_coeff          2       3        0.200000   6.120    0.216216  18.360   0.000
pair_coeff          2       4        0.200000   6.070    0.189189  18.210  35.000
pair_coeff          2       5        0.200000   6.020    0.297297  18.060   0.000
pair_coeff          2       6        0.200000   6.240    0.229730  18.720  35.000
pair_coeff          2       7        0.200000   6.290    0.256757  18.870   0.000
pair_coeff          2       8        0.200000   5.530    0.324325  16.590   0.000
pair_coeff          2       9        0.200000   6.320    0.256757  18.960  35.000
pair_coeff          2      10        0.200000   6.370    0.486486  19.110   0.000
pair_coeff          2      11        0.200000   6.370    0.486486  19.110   0.000
pair_coeff          2      12        0.200000   6.460    0.256757  19.380  35.000
pair_coeff          2      13        0.200000   6.370    0.418919  19.110   0.000
pair_coeff          2      14        0.200000   6.460    0.500000  19.380   0.000
pair_coeff          2      15        0.200000   6.060    0.500000  18.180   0.000
pair_coeff          2      16        0.200000   5.870    0.297297  17.610   0.000
pair_coeff          2      17        0.200000   6.090    0.337838  18.270   0.000
pair_coeff          2      18        0.200000   6.670    0.472973  20.010   0.000
pair_coeff          2      19        0.200000   6.510    0.432432  19.530   0.000
pair_coeff          2      20        0.200000   6.210    0.445946  18.630   0.000
pair_coeff          3       3        0.200000   5.680    0.432432  17.040   0.000
pair_coeff          3       4        0.200000   5.630    0.405405  16.890   0.000
pair_coeff          3       5        0.200000   5.580    0.513513  16.740   0.000
pair_coeff          3       6        0.200000   5.800    0.445945  17.400   0.000
pair_coeff          3       7        0.200000   5.850    0.472973  17.550   0.000
pair_coeff          3       8        0.200000   5.090    0.540540  15.270   0.000
pair_coeff          3       9        0.200000   5.880    0.472973  17.640   0.000
pair_coeff          3      10        0.200000   5.930    0.702703  17.790   0.000
pair_coeff          3      11        0.200000   5.930    0.702703  17.790   0.000
pair_coeff          3      12        0.200000   6.020    0.472973  18.060   0.000
pair_coeff          3      13        0.200000   5.930    0.635135  17.790   0.000
pair_coeff          3      14        0.200000   6.020    0.716216  18.060   0.000
pair_coeff          3      15        0.200000   5.620    0.716216  16.860   0.000
pair_coeff          3      16        0.200000   5.430    0.513513  16.290   0.000
pair_coeff          3      17        0.200000   5.650    0.554054  16.950   0.000
pair_coeff          3      18        0.200000   6.230    0.689189  18.690   0.000
pair_coeff          3      19        0.200000   6.070    0.648648  18.210   0.000
pair_coeff          3      20        0.200000   5.770    0.662162  17.310   0.000
pair_coeff          4       4        0.200000   5.580    0.378378  16.740  35.000
pair_coeff          4       5        0.200000   5.530    0.486486  16.590   0.000
pair_coeff          4       6        0.200000   5.750    0.418918  17.250  35.000
pair_coeff          4       7        0.200000   5.800    0.445946  17.400   0.000
pair_coeff          4       8        0.200000   5.040    0.513513  15.120   0.000
pair_coeff          4       9        0.200000   5.830    0.445946  17.490  35.000
pair_coeff          4      10        0.200000   5.880    0.675675  17.640   0.000
pair_coeff          4      11        0.200000   5.880    0.675675  17.640   0.000
pair_coeff          4      12        0.200000   5.970    0.445946  17.910  35.000
pair_coeff          4      13        0.200000   5.880    0.608108  17.640   0.000
pair_coeff          4      14        0.200000   5.970    0.689189  17.910   0.000
pair_coeff          4      15        0.200000   5.570    0.689189  16.710   0.000
pair_coeff          4      16        0.200000   5.380    0.486486  16.140   0.000
pair_coeff          4      17        0.200000   5.600    0.527027  16.800   0.000
pair_coeff          4      18        0.200000   6.180    0.662162  18.540   0.000
pair_coeff          4      19        0.200000   6.020    0.621622  18.060   0.000
pair_coeff          4      20        0.200000   5.720    0.635135  17.160   0.000
pair_coeff          5       5        0.200000   5.480    0.594595  16.440   0.000
pair_coeff          5       6        0.200000   5.700    0.527027  17.100   0.000
pair_coeff          5       7        0.200000   5.750    0.554055  17.250   0.000
pair_coeff          5       8        0.200000   4.990    0.621622  14.970   0.000
pair_coeff          5       9        0.200000   5.780    0.554055  17.340   0.000
pair_coeff          5      10        0.200000   5.830    0.783784  17.490   0.000
pair_coeff          5      11        0.200000   5.830    0.783784  17.490   0.000
pair_coeff          5      12        0.200000   5.920    0.554055  17.760   0.000
pair_coeff          5      13        0.200000   5.830    0.716217  17.490   0.000
pair_coeff          5      14        0.200000   5.920    0.797297  17.760   0.000
pair_coeff          5      15        0.200000   5.520    0.797297  16.560   0.000
pair_coeff          5      16        0.200000   5.330    0.594595  15.990   0.000
pair_coeff          5      17        0.200000   5.550    0.635136  16.650   0.000
pair_coeff          5      18        0.200000   6.130    0.770270  18.390   0.000
pair_coeff          5      19        0.200000   5.970    0.729730  17.910   0.000
pair_coeff          5      20        0.200000   5.670    0.743243  17.010   0.000
pair_coeff          6       6        0.200000   5.920    0.459459  17.760  35.000
pair_coeff          6       7        0.200000   5.970    0.486487  17.910   0.000
pair_coeff          6       8        0.200000   5.210    0.554054  15.630   0.000
pair_coeff          6       9        0.200000   6.000    0.486487  18.000  35.000
pair_coeff          6      10        0.200000   6.050    0.716216  18.150   0.000
pair_coeff          6      11        0.200000   6.050    0.716216  18.150   0.000
pair_coeff          6      12        0.200000   6.140    0.486487  18.420  35.000
pair_coeff          6      13        0.200000   6.050    0.648648  18.150   0.000
pair_coeff          6      14        0.200000   6.140    0.729730  18.420   0.000
pair_coeff          6      15        0.200000   5.740    0.729730  17.220   0.000
pair_coeff          6      16        0.200000   5.550    0.527027  16.650   0.000
pair_coeff          6      17        0.200000   5.770    0.567568  17.310   0.000
pair_coeff          6      18        0.200000   6.350    0.702703  19.050   0.000
pair_coeff          6      19        0.200000   6.190    0.662162  18.570   0.000
pair_coeff          6      20        0.200000   5.890    0.675675  17.670   0.000
pair_coeff          7       7        0.200000   6.020    0.513514  18.060   0.000
pair_coeff          7       8        0.200000   5.260    0.581082  15.780   0.000
pair_coeff          7       9        0.200000   6.050    0.513514  18.150   0.000
pair_coeff          7      10        0.200000   6.100    0.743243  18.300   0.000
pair_coeff          7      11        0.200000   6.100    0.743243  18.300   0.000
pair_coeff          7      12        0.200000   6.190    0.513514  18.570   0.000
pair_coeff          7      13        0.200000   6.100    0.675676  18.300   0.000
pair_coeff          7      14        0.200000   6.190    0.756757  18.570   0.000
pair_coeff          7      15        0.200000   5.790    0.756757  17.370   0.000
pair_coeff          7      16        0.200000   5.600    0.554055  16.800   0.000
pair_coeff          7      17        0.200000   5.820    0.594595  17.460   0.000
pair_coeff          7      18        0.200000   6.400    0.729730  19.200   0.000
pair_coeff          7      19        0.200000   6.240    0.689190  18.720   0.000
pair_coeff          7      20        0.200000   5.940    0.702703  17.820   0.000
pair_coeff          8       8        0.200000   4.500    0.648649  13.500   0.000
pair_coeff          8       9        0.200000   5.290    0.581082  15.870   0.000
pair_coeff          8      10        0.200000   5.340    0.810811  16.020   0.000
pair_coeff          8      11        0.200000   5.340    0.810811  16.020   0.000
pair_coeff          8      12        0.200000   5.430    0.581082  16.290   0.000
pair_coeff          8      13        0.200000   5.340    0.743243  16.020   0.000
pair_coeff          8      14        0.200000   5.430    0.824325  16.290   0.000
pair_coeff          8      15        0.200000   5.030    0.824325  15.090   0.000
pair_coeff          8      16        0.200000   4.840    0.621622  14.520   0.000
pair_coeff          8      17        0.200000   5.060    0.662162  15.180   0.000
pair_coeff          8      18        0.200000   5.640    0.797297  16.920   0.000
pair_coeff          8      19        0.200000   5.480    0.756757  16.440   0.000
pair_coeff          8      20        0.200000   5.180    0.770271  15.540   0.000
pair_coeff          9       9        0.200000   6.080    0.513514  18.240  35.000
pair_coeff          9      10        0.200000   6.130    0.743243  18.390   0.000
pair_coeff          9      11        0.200000   6.130    0.743243  18.390   0.000
pair_coeff          9      12        0.200000   6.220    0.513514  18.660  35.000
pair_coeff          9      13        0.200000   6.130    0.675676  18.390   0.000
pair_coeff          9      14        0.200000   6.220    0.756757  18.660   0.000
pair_coeff          9      15        0.200000   5.820    0.756757  17.460   0.000
pair_coeff          9      16        0.200000   5.630    0.554055  16.890   0.000
pair_coeff          9      17        0.200000   5.850    0.594595  17.550   0.000
pair_coeff          9      18        0.200000   6.430    0.729730  19.290   0.000
pair_coeff          9      19        0.200000   6.270    0.689190  18.810   0.000
pair_coeff          9      20        0.200000   5.970    0.702703  17.910   0.000
pair_coeff         10      10        0.200000   6.180    0.972973  18.540   0.000
pair_coeff         10      11        0.200000   6.180    0.972973  18.540   0.000
pair_coeff         10      12        0.200000   6.270    0.743243  18.810   0.000
pair_coeff         10      13        0.200000   6.180    0.905405  18.540   0.000
pair_coeff         10      14        0.200000   6.270    0.986487  18.810   0.000
pair_coeff         10      15        0.200000   5.870    0.986487  17.610   0.000
pair_coeff         10      16        0.200000   5.680    0.783784  17.040   0.000
pair_coeff         10      17        0.200000   5.900    0.824325  17.700   0.000
pair_coeff         10      18        0.200000   6.480    0.959459  19.440   0.000
pair_coeff         10      19        0.200000   6.320    0.918919  18.960   0.000
pair_coeff         10      20        0.200000   6.020    0.932432  18.060   0.000
pair_coeff         11      11        0.200000   6.180    0.972973  18.540   0.000
pair_coeff         11      12        0.200000   6.270    0.743243  18.810   0.000
pair_coeff         11      13        0.200000   6.180    0.905405  18.540   0.000
pair_coeff         11      14        0.200000   6.270    0.986487  18.810   0.000
pair_coeff         11      15        0.200000   5.870    0.986487  17.610   0.000
pair_coeff         11      16        0.200000   5.680    0.783784  17.040   0.000
pair_coeff         11      17        0.200000   5.900    0.824325  17.700   0.000
pair_coeff         11      18        0.200000   6.480    0.959459  19.440   0.000
pair_coeff         11      19        0.200000   6.320    0.918919  18.960   0.000
pair_coeff         11      20        0.200000   6.020    0.932432  18.060   0.000
pair_coeff         12      12        0.200000   6.360    0.513514  19.080  35.000
pair_coeff         12      13        0.200000   6.270    0.675676  18.810   0.000
pair_coeff         12      14        0.200000   6.360    0.756757  19.080   0.000
pair_coeff         12      15        0.200000   5.960    0.756757  17.880   0.000
pair_coeff         12      16        0.200000   5.770    0.554055  17.310   0.000
pair_coeff         12      17        0.200000   5.990    0.594595  17.970   0.000
pair_coeff         12      18        0.200000   6.570    0.729730  19.710   0.000
pair_coeff         12      19        0.200000   6.410    0.689190  19.230   0.000
pair_coeff         12      20        0.200000   6.110    0.702703  18.330   0.000
pair_coeff         13      13        0.200000   6.180    0.837838  18.540   0.000
pair_coeff         13      14        0.200000   6.270    0.918919  18.810   0.000
pair_coeff         13      15        0.200000   5.870    0.918919  17.610   0.000
pair_coeff         13      16        0.200000   5.680    0.716217  17.040   0.000
pair_coeff         13      17        0.200000   5.900    0.756757  17.700   0.000
pair_coeff         13      18        0.200000   6.480    0.891892  19.440   0.000
pair_coeff         13      19        0.200000   6.320    0.851352  18.960   0.000
pair_coeff         13      20        0.200000   6.020    0.864865  18.060   0.000
pair_coeff         14      14        0.200000   6.360    1.000000  19.080   0.000
pair_coeff         14      15        0.200000   5.960    1.000000  17.880   0.000
pair_coeff         14      16        0.200000   5.770    0.797297  17.310   0.000
pair_coeff         14      17        0.200000   5.990    0.837838  17.970   0.000
pair_coeff         14      18        0.200000   6.570    0.972973  19.710   0.000
pair_coeff         14      19        0.200000   6.410    0.932432  19.230   0.000
pair_coeff         14      20        0.200000   6.110    0.945946  18.330   0.000
pair_coeff         15      15        0.200000   5.560    1.000000  16.680   0.000
pair_coeff         15      16        0.200000   5.370    0.797297  16.110   0.000
pair_coeff         15      17        0.200000   5.590    0.837838  16.770   0.000
pair_coeff         15      18        0.200000   6.170    0.972973  18.510   0.000
pair_coeff         15      19        0.200000   6.010    0.932432  18.030   0.000
pair_coeff         15      20        0.200000   5.710    0.945946  17.130   0.000
pair_coeff         16      16        0.200000   5.180    0.594595  15.540   0.000
pair_coeff         16      17        0.200000   5.400    0.635136  16.200   0.000
pair_coeff         16      18        0.200000   5.980    0.770270  17.940   0.000
pair_coeff         16      19        0.200000   5.820    0.729730  17.460   0.000
pair_coeff         16      20        0.200000   5.520    0.743243  16.560   0.000
pair_coeff         17      17        0.200000   5.620    0.675676  16.860   0.000
pair_coeff         17      18        0.200000   6.200    0.810811  18.600   0.000
pair_coeff         17      19        0.200000   6.040    0.770271  18.120   0.000
pair_coeff         17      20        0.200000   5.740    0.783784  17.220   0.000
pair_coeff         18      18        0.200000   6.780    0.945946  20.340   0.000
pair_coeff         18      19        0.200000   6.620    0.905405  19.860   0.000
pair_coeff         18      20        0.200000   6.320    0.918919  18.960   0.000
pair_coeff         19      19        0.200000   6.460    0.864865  19.380   0.000
pair_coeff         19      20        0.200000   6.160    0.878378  18.480   0.000
pair_coeff         20      20        0.200000   5.860    0.891892  17.580   0.000


special_bonds fene
  2 = max # of 1-2 neighbors
  6 = max # of special neighbors
  special bonds CPU = 0.00221477 secs
neighbor  3.5 multi
neigh_modify  every 10 delay 0

comm_style    tiled
timestep      10.0

velocity      all create 300 494211
fix           fxnve  all nve
fix           fxlange all langevin 300 300 10000 451618

compute rg all gyration

thermo        10000
thermo_style  custom step pe ebond ecoul evdwl
thermo_modify flush yes

dump          atom_file all atom 10000 atom_traj_0.lammpstrj
dump_modify   atom_file flush yes scale no

dump          dcd_file all dcd 10000 dcd_traj_0.dcd
dump_modify   dcd_file flush yes unwrap yes
restart 10 rst.1 rst.2
run           100000
Neighbor list info ...
  update every 10 steps, delay 0 steps, check yes
  max neighbors/atom: 2000, page size: 100000
  master list distance cutoff = 38.5
  ghost atom cutoff = 38.5
  binsize = 8.5, bins = 295 295 295
  1 neighbor lists, perpetual/occasional/extra = 1 0 0
  (1) pair ljlambda, perpetual
      attributes: half, newton on
      pair build: half/multi/newton
      stencil: half/multi/3d/newton
      bin: standard
Per MPI rank memory allocation (min/avg/max) = 16.06 | 16.95 | 23.17 Mbytes
Step PotEng E_bond E_coul E_vdwl 
       0    -14.08466 2.2239289e-24  -0.90267122   -13.181989 
   10000    34.241117    50.930112   -1.8689435   -14.820052 
   20000    30.192432    46.034673   -1.5834935   -14.258747 
   30000    18.392829    37.364408   -1.7762144   -17.195365 
   40000    21.418731    39.478705   -1.4734671   -16.586507 
   50000    14.845687    35.910402   -1.7848613   -19.279853 
   60000    23.710296    44.168625    -2.420248   -18.038081 
   70000    2.5296375    27.821393   -2.2881677   -23.003588 
   80000    20.845057    44.186825   -1.9016818   -21.440086 
   90000    33.066658    53.594398   -1.9133627   -18.614377 
  100000    9.6722774    34.694467   -1.3792595    -23.64293 
Loop time of 347.949 on 8 procs for 100000 steps with 136 atoms

Performance: 248.312 ns/day, 0.097 hours/ns, 287.398 timesteps/s
35.5% CPU use with 8 MPI tasks x 1 OpenMP threads

MPI task timing breakdown:
Section |  min time  |  avg time  |  max time  |%varavg| %total
---------------------------------------------------------------
Pair    | 0.024308   | 2.0987     | 16.561     | 377.3 |  0.60
Bond    | 0.025384   | 0.16108    | 1.0659     |  85.2 |  0.05
Neigh   | 243.09     | 254.35     | 262.63     |  39.3 | 73.10
Comm    | 67.728     | 80.297     | 94.427     |  91.5 | 23.08
Output  | 7.5731     | 10.505     | 14.185     |  52.9 |  3.02
Modify  | 0.1138     | 0.41798    | 2.3908     | 115.4 |  0.12
Other   |            | 0.1238     |            |       |  0.04

Nlocal:    17 ave 136 max 0 min
Histogram: 7 0 0 0 0 0 0 0 0 1
Nghost:    0 ave 0 max 0 min
Histogram: 8 0 0 0 0 0 0 0 0 0
Neighs:    249 ave 1992 max 0 min
Histogram: 7 0 0 0 0 0 0 0 0 1

Total # of neighbors = 1992
Ave neighs/atom = 14.6471
Ave special neighs/atom = 1.98529
Neighbor list builds = 10000
Dangerous builds = 0

Please see the log.cite file for references relevant to this simulation

Total wall time: 0:05:48
