 LAMMPS data file for protein binding
 
         440   atoms
         439   bonds

          20   atom types
           1   bond types
 
           0      391        xlo xhi
           0      391        ylo yhi
           0       391        zlo zhi
 
 Masses

            1  71.0800018 
            2  156.10111 
            3  114.099998 
            4  115.099998 
            5  103.00919 
            6  129.100006 
            7  128.100006 
            8  57.0499992 
            9  137.100006 
           10  113.199997 
           11  113.199997 
           12  128.199997 
           13  131.199997 
           14  147.199997 
           15  97.1200027 
           16  87.0800018 
           17  101.099998 
           18  186.07931 
           19  163.199997 
           20  99.0699997 

 
 Atoms

        1          1          13        0.00     34.374    -17.321    -72.888 
        2          1           8        0.00     33.181    -15.266    -69.443 
        3          1           4       -1.00     35.604    -16.259    -66.223 
        4          1          19        0.00     37.327    -13.779    -64.316 
        5          1           8        0.00     34.251    -11.574    -64.937 
        6          1          14        0.00     32.770    -10.494    -61.463 
        7          1           8        0.00     29.545    -8.751    -62.720 
        8          1          20        0.00     26.482    -9.524    -65.124 
        9          1          11        0.00     23.211    -7.458    -65.693 
       10          1          20        0.00     19.853    -10.171    -65.884 
       11          1           7        0.00     16.748    -10.175    -63.594 
       12          1          16        0.00     14.238    -13.118    -63.111 
       13          1           3        0.00     15.266    -15.833    -60.950 
       14          1          17        0.00     12.859    -17.852    -58.584 
       15          1           8        0.00     13.981    -21.287    -59.825 
       16          1           3        0.00     17.217    -23.329    -61.465 
       17          1          12        1.00     17.766    -26.603    -62.905 
       18          1           4       -1.00     20.611    -27.524    -60.753 
       19          1           1        0.00     22.477    -30.307    -59.557 
       20          1          14        0.00     25.622    -30.972    -57.624 
       21          1          15        0.00     28.284    -29.448    -55.106 
       22          1          20        0.00     31.026    -29.443    -52.570 
       23          1           2        1.00     34.077    -27.613    -51.218 
       24          1          14        0.00     35.005    -25.175    -54.098 
       25          1           9        0.50     35.306    -25.559    -57.643 
       26          1          15        0.00     36.716    -22.142    -59.726 
       27          1           9        0.50     35.352    -18.449    -58.814 
       28          1          11        0.00     32.725    -17.563    -56.746 
       29          1           7        0.00     31.371    -15.258    -54.348 
       30          1          15        0.00     33.231    -11.757    -54.124 
       31          1          15        0.00     32.446    -8.094    -54.642 
       32          1           9        0.50     30.899    -4.645    -54.892 
       33          1           9        0.50     29.316    -1.512    -56.005 
       34          1           9        0.50     26.298    -0.923    -58.411 
       35          1           7        0.00     23.813     1.823    -58.170 
       36          1           3        0.00     23.845     5.507    -57.216 
       37          1           1        0.00     22.340     9.042    -56.551 
       38          1           4       -1.00     18.462     9.003    -57.544 
       39          1          15        0.00     16.838     8.470    -54.348 
       40          1           4       -1.00     17.009     11.623    -51.614 
       41          1          15        0.00     17.026     11.488    -47.855 
       42          1           1        0.00     17.287     11.011    -44.295 
       43          1           1        0.00     20.113     8.615    -44.287 
       44          1          14        0.00     18.985     5.454    -45.559 
       45          1          10        0.00     19.675     3.143    -48.517 
       46          1           3        0.00     21.051    -0.468    -47.037 
       47          1           3        0.00     18.552    -2.811    -44.866 
       48          1           3        0.00     17.349    -5.488    -42.387 
       49          1          17        0.00     18.341    -5.029    -39.407 
       50          1           1        0.00     16.687    -1.823    -37.449 
       51          1           1        0.00     17.409     1.808    -37.751 
       52          1           3        0.00     19.854     3.658    -40.188 
       53          1           8        0.00     21.476     7.337    -40.013 
       54          1          16        0.00     22.589     10.992    -39.143 
       55          1          16        0.00     25.096     10.105    -41.697 
       56          1           1        0.00     26.934     11.656    -44.584 
       57          1           8        0.00     28.558     14.220    -41.791 
       58          1          16        0.00     27.123     14.055    -38.430 
       59          1           1        0.00     29.187     17.439    -38.143 
       60          1          18        0.00     32.175     19.626    -39.852 
       61          1          11        0.00     33.597     20.922    -42.971 
       62          1          14        0.00     35.307     22.128    -45.891 
       63          1          15        0.00     35.879     22.106    -49.658 
       64          1           1        0.00     38.126     24.011    -51.691 
       65          1          15        0.00     40.952     24.458    -48.532 
       66          1           1        0.00     43.341     21.631    -50.742 
       67          1          17        0.00     46.704     22.878    -50.793 
       68          1           9        0.50     48.496     20.179    -51.525 
       69          1           3        0.00     47.476     16.519    -51.913 
       70          1          10        0.00     49.627     14.787    -48.997 
       71          1           7        0.00     51.535     14.923    -45.931 
       72          1           4       -1.00     53.585     14.701    -42.737 
       73          1           6       -1.00     51.534     16.199    -39.863 
       74          1          10        0.00     52.614     18.701    -36.548 
       75          1          11        0.00     55.108     17.882    -33.501 
       76          1           8        0.00     53.297     14.772    -32.575 
       77          1          16        0.00     51.792     11.641    -34.772 
       78          1           6       -1.00     50.384     8.488    -36.574 
       79          1          12        1.00     47.205     7.890    -33.900 
       80          1           1        0.00     44.528     8.074    -36.777 
       81          1          12        1.00     43.415     4.813    -38.677 
       82          1          16        0.00     39.718     3.439    -39.464 
       83          1           7        0.00     38.424     0.386    -40.213 
       84          1           7        0.00     37.446    -2.142    -37.678 
       85          1           7        0.00     36.409    -3.178    -33.993 
       86          1           6       -1.00     34.743    -6.800    -34.251 
       87          1           7        0.00     31.102    -8.231    -34.178 
       88          1           7        0.00     31.258    -7.961    -37.866 
       89          1           4       -1.00     30.294    -9.503    -41.234 
       90          1          15        0.00     26.710    -8.953    -41.494 
       91          1          11        0.00     23.789    -11.391    -41.916 
       92          1           6       -1.00     20.041    -12.275    -41.251 
       93          1          12        1.00     16.229    -13.062    -40.247 
       94          1           7        0.00     14.269    -12.218    -36.708 
       95          1           7        0.00     17.494    -12.453    -34.320 
       96          1          11        0.00     18.412    -16.639    -33.517 
       97          1           4       -1.00     20.679    -19.783    -33.374 
       98          1          15        0.00     22.307    -22.306    -31.340 
       99          1          16        0.00     22.456    -25.871    -30.284 
      100          1          15        0.00     24.501    -26.614    -33.720 
      101          1           8        0.00     25.043    -22.958    -34.930 
      102          1           7        0.00     27.157    -23.007    -38.236 
      103          1           6       -1.00     24.403    -22.232    -40.895 
      104          1           1        0.00     22.262    -18.648    -40.485 
      105          1           8        0.00     18.957    -18.813    -38.410 
      106          1          10        0.00     15.766    -20.268    -39.180 
      107          1          11        0.00     12.202    -18.475    -39.235 
      108          1          15        0.00     10.267    -18.002    -42.201 
      109          1           6       -1.00     11.819    -16.328    -45.370 
      110          1          17        0.00     11.875    -16.799    -48.762 
      111          1           6       -1.00     10.020    -18.901    -51.242 
      112          1          12        1.00     6.246    -18.497    -50.685 
      113          1           1        0.00     3.309    -18.778    -48.837 
      114          1          12        1.00     0.266    -18.620    -46.663 
      115          1          16        0.00    -0.062    -16.761    -43.442 
      116          1           6       -1.00    -0.366    -13.219    -42.164 
      117          1           6       -1.00     1.365    -12.134    -38.361 
      118          1           3        0.00     0.682    -11.837    -34.576 
      119          1           7        0.00     0.862    -9.115    -31.875 
      120          1           8        0.00     3.645    -10.016    -29.973 
      121          1           4       -1.00     6.051    -6.531    -29.001 
      122          1           3        0.00     4.737    -6.161    -26.024 
      123          1          16        0.00     1.624    -6.227    -22.974 
      124          1          16        0.00    -0.527    -8.885    -24.581 
      125          1           6       -1.00    -4.116    -9.456    -25.027 
      126          1           3        0.00    -8.060    -10.331    -25.197 
      127          1           8        0.00    -8.420    -13.494    -23.163 
      128          1           3        0.00    -7.422    -16.826    -23.798 
      129          1           8        0.00    -4.806    -15.731    -26.122 
      130          1          12        1.00    -4.431    -14.982    -29.593 
      131          1           6       -1.00    -4.320    -18.314    -31.536 
      132          1          12        1.00    -0.302    -18.054    -33.172 
      133          1          10        0.00     1.354    -17.186    -29.729 
      134          1           2        1.00     3.759    -15.883    -27.181 
      135          1          10        0.00     3.003    -15.379    -24.006 
      136          1           6       -1.00     1.869    -15.598    -20.189 
      137          1          16        0.00    -0.035    -17.216    -17.067 
      138          1          15        0.00    -1.334    -14.316    -14.904 
      139          1          20        0.00    -3.736    -11.687    -14.085 
      140          1          11        0.00    -2.659    -9.848    -11.342 
      141          1          17        0.00    -2.600    -11.510    -8.037 
      142          1           8        0.00    -6.238    -12.912    -8.615 
      143          1          14        0.00    -7.052    -14.598    -5.018 
      144          1           4       -1.00    -3.767    -14.938    -2.804 
      145          1          19        0.00    -2.136    -18.031    -2.580 
      146          1           7        0.00     1.540    -18.825    -3.224 
      147          1           6       -1.00     4.642    -18.859    -5.384 
      148          1           1        0.00     7.785    -18.582    -7.918 
      149          1          17        0.00     7.714    -15.311    -9.046 
      150          1           8        0.00     5.253    -16.242    -11.529 
      151          1          11        0.00     6.226    -19.443    -13.765 
      152          1           8        0.00     6.940    -22.225    -16.121 
      153          1          17        0.00     7.759    -23.245    -19.631 
      154          1          16        0.00     4.513    -23.913    -21.553 
      155          1          17        0.00     1.377    -22.992    -23.428 
      156          1           7        0.00    -2.064    -24.607    -24.336 
      157          1          15        0.00    -4.792    -24.989    -21.308 
      158          1          11        0.00    -5.471    -21.377    -19.416 
      159          1          17        0.00    -5.367    -19.803    -15.642 
      160          1          16        0.00    -7.898    -18.188    -13.629 
      161          1          16        0.00    -7.465    -21.132    -11.065 
      162          1           1        0.00    -10.299    -23.706    -12.417 
      163          1          16        0.00    -13.391    -25.662    -11.837 
      164          1          16        0.00    -16.394    -23.390    -13.240 
      165          1          11        0.00    -15.187    -19.603    -12.298 
      166          1          17        0.00    -12.764    -16.588    -12.464 
      167          1           8        0.00    -11.981    -14.504    -9.865 
      168          1          14        0.00    -13.475    -11.317    -8.368 
      169          1          16        0.00    -13.313    -7.550    -8.666 
      170          1           3        0.00    -10.043    -6.351    -7.149 
      171          1          18        0.00    -8.618    -7.769    -3.682 
      172          1          16        0.00    -6.699    -6.119    -1.359 
      173          1           1        0.00    -8.364    -6.611     2.411 
      174          1           1        0.00    -5.353    -5.628     4.802 
      175          1          10        0.00    -5.108    -1.997     2.818 
      176          1           1        0.00    -3.726     1.191     1.221 
      177          1          15        0.00    -4.433     4.114    -1.394 
      178          1          16        0.00    -1.976     2.841    -4.366 
      179          1          16        0.00     0.199     5.573    -3.170 
      180          1          16        0.00     4.366     5.869    -2.160 
      181          1          17        0.00     2.919     4.999     0.893 
      182          1          10        0.00     4.698     6.893     3.645 
      183          1          10        0.00     8.063     6.744     5.167 
      184          1           3        0.00     10.876     8.114     6.900 
      185          1           6       -1.00     14.208     8.240     5.080 
      186          1           4       -1.00     14.607     6.563     1.509 
      187          1           1        0.00     11.431     6.375     0.585 
      188          1          16        0.00     8.521     8.261    -0.991 
      189          1          14        0.00     6.579     11.647    -1.009 
      190          1          14        0.00     3.745     13.643    -2.043 
      191          1           9        0.50     4.084     16.189    -5.346 
      192          1           7        0.00     1.260     16.405    -8.202 
      193          1           8        0.00    -2.260     18.186    -8.658 
      194          1           8        0.00    -2.906     21.978    -8.675 
      195          1          20        0.00    -3.644     23.093    -12.086 
      196          1          15        0.00    -6.229     25.998    -12.418 
      197          1           1        0.00    -7.446     27.927    -15.431 
      198          1           1        0.00    -4.368     30.454    -14.809 
      199          1          16        0.00    -0.643     29.321    -14.394 
      200          1           1        0.00     1.854     31.850    -15.198 
      201          1           3        0.00     3.421     34.631    -17.300 
      202          1           3        0.00     3.459     32.553    -20.537 
      203          1           8        0.00     0.493     34.978    -21.965 
      204          1           1        0.00    -2.620     32.912    -22.236 
      205          1          11        0.00    -5.829     34.102    -23.627 
      206          1          11        0.00    -8.750     32.687    -21.395 
      207          1          14        0.00    -11.656     30.824    -20.047 
      208          1           7        0.00    -15.087     29.835    -19.562 
      209          1           3        0.00    -17.403     27.214    -20.742 
      210          1          14        0.00    -16.787     23.265    -20.347 
      211          1          15        0.00    -13.321     23.104    -18.537 
      212          1           9        0.50    -12.828     21.021    -15.740 
      213          1           9        0.50    -16.656     20.739    -14.672 
      214          1          20        0.00    -16.522     17.757    -12.031 
      215          1          16        0.00    -14.456     18.143    -9.176 
      216          1          15        0.00    -10.868     17.147    -8.907 
      217          1           8        0.00    -9.942     13.574    -10.461 
      218          1          14        0.00    -8.862     14.027    -14.395 
      219          1           8        0.00    -7.524     17.169    -12.594 
      220          1           8        0.00    -6.342     19.286    -15.560 
      221          1          16        0.00    -3.759     19.689    -18.198 
      222          1          14        0.00    -6.693     19.050    -21.258 
      223          1          16        0.00    -7.719     15.344    -22.580 
      224          1          15        0.00    -6.991     12.205    -20.189 
      225          1           7        0.00    -8.557     9.439    -22.642 
      226          1          10        0.00    -6.443     9.851    -25.706 
      227          1           8        0.00    -4.250     6.728    -26.005 
      228          1          15        0.00    -0.751     4.762    -27.119 
      229          1          11        0.00    -1.784     6.607    -30.248 
      230          1          16        0.00     0.440     9.712    -31.241 
      231          1           7        0.00     2.378     12.935    -30.865 
      232          1           9        0.50     1.145     14.628    -27.445 
      233          1           9        0.50     0.587     14.374    -23.538 
      234          1          15        0.00     3.055     15.247    -20.923 
      235          1           9        0.50     3.759     12.787    -18.345 
      236          1           9        0.50     3.843     12.700    -14.886 
      237          1          15        0.00     4.460     10.797    -11.630 
      238          1           9        0.50     7.222     10.213    -8.816 
      239          1          14        0.00     10.005     12.840    -7.649 
      240          1           7        0.00     11.332     16.177    -7.854 
      241          1           9        0.50     11.475     19.804    -7.838 
      242          1           9        0.50     14.007     22.019    -9.814 
      243          1           9        0.50     16.180     24.997    -9.017 
      244          1          16        0.00     18.654     22.866    -6.936 
      245          1           7        0.00     19.953     19.537    -6.255 
      246          1           9        0.50     17.383     16.876    -4.820 
      247          1           7        0.00     17.824     13.708    -2.733 
      248          1           7        0.00     18.887     14.644     0.789 
      249          1           7        0.00     17.267     17.190     4.046 
      250          1           2        1.00     19.056     18.584     7.207 
      251          1           2        1.00     22.601     19.167     8.421 
      252          1           4       -1.00     23.085     22.941     8.363 
      253          1          15        0.00     21.286     25.864     8.721 
      254          1           1        0.00     18.162     28.403     8.777 
      255          1           4       -1.00     16.735     31.215     6.940 
      256          1          15        0.00     13.328     31.790     8.198 
      257          1           9        0.50     9.735     32.300     8.261 
      258          1          15        0.00     7.101     30.173     6.257 
      259          1          15        0.00     5.208     28.380     3.770 
      260          1          15        0.00     5.517     24.642     4.180 
      261          1          14        0.00     2.438     23.875     6.249 
      262          1          17        0.00    -0.926     25.050     4.945 
      263          1           9        0.50    -3.794     24.635     2.643 
      264          1           2        1.00    -4.668     20.946     3.012 
      265          1           3        0.00    -1.625     18.777     1.503 
      266          1           1        0.00     0.713     16.859     3.477 
      267          1           1        0.00    -0.441     16.392     7.472 
      268          1          14        0.00     3.522     15.394     8.675 
      269          1           3        0.00     4.532     17.777     11.776 
      270          1           7        0.00     2.350     21.164     11.933 
      271          1          11        0.00     2.838     24.799     12.618 
      272          1          15        0.00    -0.040     27.827     12.354 
      273          1           9        0.50    -1.116     30.991     11.133 
      274          1          11        0.00    -4.280     32.167     12.823 
      275          1           1        0.00    -7.377     33.266     11.537 
      276          1           3        0.00    -9.995     35.725     11.652 
      277          1           3        0.00    -9.322     37.921     8.951 
      278          1          11        0.00    -6.961     38.583     6.076 
      279          1           3        0.00    -9.310     38.020     3.147 
      280          1          12        1.00    -12.237     35.776     3.034 
      281          1          15        0.00    -9.382     32.844     4.302 
      282          1          15        0.00    -11.753     29.944     3.552 
      283          1          16        0.00    -15.019     27.910     3.736 
      284          1          15        0.00    -18.740     28.042     2.851 
      285          1          18        0.00    -21.468     26.324     1.612 
      286          1          16        0.00    -24.409     28.409     1.102 
      287          1          16        0.00    -27.428     29.329     2.530 
      288          1          19        0.00    -30.132     30.709     5.599 
      289          1           7        0.00    -31.153     31.673     9.323 
      290          1          16        0.00    -27.886     33.499     10.771 
      291          1          15        0.00    -27.702     36.386     13.435 
      292          1          16        0.00    -29.529     37.778     16.272 
      293          1          15        0.00    -31.997     35.325     17.972 
      294          1          17        0.00    -31.755     34.611     22.011 
      295          1          15        0.00    -29.570     31.851     23.602 
      296          1          16        0.00    -28.310     27.961     24.627 
      297          1          16        0.00    -24.757     28.847     23.727 
      298          1          16        0.00    -22.013     29.659     21.601 
      299          1          18        0.00    -21.840     27.202     18.974 
      300          1          16        0.00    -23.983     24.773     18.012 
      301          1          15        0.00    -23.366     21.042     19.118 
      302          1           8        0.00    -26.689     20.946     21.110 
      303          1           8        0.00    -24.326     21.210     24.282 
      304          1           8        0.00    -26.833     19.750     26.611 
      305          1           8        0.00    -24.343     17.363     27.557 
      306          1          19        0.00    -26.533     14.499     28.870 
      307          1           8        0.00    -28.219     11.638     31.064 
      308          1           8        0.00    -29.286     13.469     34.173 
      309          1          18        0.00    -32.052     11.483     34.158 
      310          1           8        0.00    -31.976     10.107     37.774 
      311          1           8        0.00    -34.002     11.072     40.119 
      312          1          16        0.00    -36.609     13.817     39.624 
      313          1           7        0.00    -36.372     17.480     41.744 
      314          1           8        0.00    -40.184     16.884     41.063 
      315          1           2        1.00    -42.642     14.946     43.307 
      316          1           4       -1.00    -42.883     11.562     42.344 
      317          1           9        0.50    -40.070     9.804     40.439 
      318          1           2        1.00    -40.293     6.011     41.310 
      319          1           2        1.00    -39.876     4.764     44.722 
      320          1           8        0.00    -42.249     3.232     47.563 
      321          1          11        0.00    -45.269     0.732     46.973 
      322          1           3        0.00    -45.154    -1.766     49.765 
      323          1           8        0.00    -48.852    -1.003     50.809 
      324          1           8        0.00    -48.728     2.570     50.251 
      325          1          10        0.00    -47.760     4.408     53.428 
      326          1           4       -1.00    -45.348     6.661     55.254 
      327          1          15        0.00    -42.021     8.045     53.619 
      328          1          11        0.00    -39.236     10.727     55.392 
      329          1           3        0.00    -36.397     9.463     53.610 
      330          1           4       -1.00    -33.384     7.316     54.693 
      331          1          10        0.00    -33.031     4.141     51.843 
      332          1           4       -1.00    -31.801     1.761     54.267 
      333          1          15        0.00    -28.665    -0.420     53.847 
      334          1          11        0.00    -24.920    -1.815     53.688 
      335          1          12        1.00    -23.638    -2.254     57.744 
      336          1          12        1.00    -20.715    -3.317     60.452 
      337          1           3        0.00    -17.736    -4.569     62.592 
      338          1          14        0.00    -15.903    -7.382     64.248 
      339          1           1        0.00    -17.018    -10.794     65.709 
      340          1          16        0.00    -17.317    -12.972     68.875 
      341          1           3        0.00    -18.802    -10.134     71.437 
      342          1           9        0.50    -18.176    -6.137     72.281 
      343          1          10        0.00    -16.198    -4.186     74.793 
      344          1           7        0.00    -13.876    -5.527     77.303 
      345          1          11        0.00    -10.001    -5.841     76.884 
      346          1           7        0.00    -7.277    -8.405     76.833 
      347          1          12        1.00    -6.864    -8.469     72.979 
      348          1          19        0.00    -4.941    -11.620     72.876 
      349          1           1        0.00    -6.656    -12.150     69.198 
      350          1           2        1.00    -10.303    -12.152     68.843 
      351          1          15        0.00    -10.145    -8.740     67.269 
      352          1          16        0.00    -8.790    -5.877     65.535 
      353          1           4       -1.00    -5.334    -4.134     64.750 
      354          1           1        0.00    -4.887    -3.489     61.056 
      355          1          14        0.00    -6.992    -1.620     58.650 
      356          1           1        0.00    -8.920    -5.239     58.700 
      357          1          15        0.00    -12.136    -3.434     57.540 
      358          1          12        1.00    -13.818    -1.433     54.512 
      359          1           4       -1.00    -12.377    -4.045     52.189 
      360          1          18        0.00    -12.179    -6.924     49.741 
      361          1          13        0.00    -8.506    -7.686     48.880 
      362          1           6       -1.00    -6.945    -5.641     45.842 
      363          1           4       -1.00    -5.372    -2.259     45.622 
      364          1           4       -1.00    -2.510    -0.043     47.155 
      365          1          11        0.00     0.802     1.209     46.078 
      366          1           3        0.00     4.072    -0.652     46.858 
      367          1           2        1.00     6.111     0.042     50.362 
      368          1           1        0.00     9.529     0.896     49.317 
      369          1           4       -1.00     12.326    -1.570     50.475 
      370          1           3        0.00     13.777    -1.962     47.085 
      371          1          10        0.00     13.691    -5.513     45.806 
      372          1          14        0.00     11.121    -7.520     48.276 
      373          1          15        0.00     7.578    -8.795     49.153 