 LAMMPS data file for protein binding
 
         448   atoms
         447   bonds

          20   atom types
           1   bond types
 
  -2000.000000       2000.000000        xlo xhi
  -2000.000000       2000.000000        ylo yhi
  -2000.000000       2000.000000        zlo zhi
 
 Masses

            1  71.0800018 
            2  156.10111 
            3  114.099998 
            4  115.099998 
            5  103.00919 
            6  129.100006 
            7  128.100006 
            8  57.0499992 
            9  137.100006 
           10  113.199997 
           11  113.199997 
           12  128.199997 
           13  131.199997 
           14  147.199997 
           15  97.1200027 
           16  87.0800018 
           17  101.099998 
           18  186.07931 
           19  163.199997 
           20  99.0699997 

 
 Atoms

         1          1          13        0.00    -236.200    -220.000    -240.000 
         2          1           8        0.00    -232.400    -220.000    -240.000 
         3          1           4       -1.00    -228.600    -220.000    -240.000 
         4          1          19        0.00    -224.800    -220.000    -240.000 
         5          1           8        0.00    -221.000    -220.000    -240.000 
         6          1          14        0.00    -217.200    -220.000    -240.000 
         7          1           8        0.00    -213.400    -220.000    -240.000 
         8          1          20        0.00    -209.600    -220.000    -240.000 
         9          1          11        0.00    -205.800    -220.000    -240.000 
        10          1          20        0.00    -202.000    -220.000    -240.000 
        11          1           7        0.00    -198.200    -220.000    -240.000 
        12          1          16        0.00    -194.400    -220.000    -240.000 
        13          1           3        0.00    -190.600    -220.000    -240.000 
        14          1          17        0.00    -186.800    -220.000    -240.000 
        15          1           8        0.00    -183.000    -220.000    -240.000 
        16          1           3        0.00    -179.200    -220.000    -240.000 
        17          1          12        1.00    -175.400    -220.000    -240.000 
        18          1          16        0.00    -171.600    -220.000    -240.000 
        19          1           1        0.00    -167.800    -220.000    -240.000 
        20          1          14        0.00    -164.000    -220.000    -240.000 
        21          1          15        0.00    -160.200    -220.000    -240.000 
        22          1          20        0.00    -156.400    -220.000    -240.000 
        23          1           2        1.00    -152.600    -220.000    -240.000 
        24          1          14        0.00    -148.800    -220.000    -240.000 
        25          1           9        0.50    -145.000    -220.000    -240.000 
        26          1          15        0.00    -141.200    -220.000    -240.000 
        27          1           9        0.50    -137.400    -220.000    -240.000 
        28          1          11        0.00    -133.600    -220.000    -240.000 
        29          1           7        0.00    -129.800    -220.000    -240.000 
        30          1          15        0.00    -126.000    -220.000    -240.000 
        31          1          15        0.00    -122.200    -220.000    -240.000 
        32          1           9        0.50    -118.400    -220.000    -240.000 
        33          1           9        0.50    -114.600    -220.000    -240.000 
        34          1           9        0.50    -110.800    -220.000    -240.000 
        35          1           7        0.00    -107.000    -220.000    -240.000 
        36          1           3        0.00    -103.200    -220.000    -240.000 
        37          1           1        0.00    -99.400    -220.000    -240.000 
        38          1          17        0.00    -95.600    -220.000    -240.000 
        39          1          15        0.00    -91.800    -220.000    -240.000 
        40          1          16        0.00    -88.000    -220.000    -240.000 
        41          1          15        0.00    -84.200    -220.000    -240.000 
        42          1           1        0.00    -80.400    -220.000    -240.000 
        43          1           1        0.00    -76.600    -220.000    -240.000 
        44          1          14        0.00    -72.800    -220.000    -240.000 
        45          1          10        0.00    -69.000    -220.000    -240.000 
        46          1           3        0.00    -65.200    -220.000    -240.000 
        47          1           3        0.00    -61.400    -220.000    -240.000 
        48          1           3        0.00    -57.600    -220.000    -240.000 
        49          1          17        0.00    -53.800    -220.000    -240.000 
        50          1           1        0.00    -50.000    -220.000    -240.000 
        51          1           1        0.00    -46.200    -220.000    -240.000 
        52          1           3        0.00    -42.400    -220.000    -240.000 
        53          1           8        0.00    -38.600    -220.000    -240.000 
        54          1          16        0.00    -34.800    -220.000    -240.000 
        55          1          16        0.00    -31.000    -220.000    -240.000 
        56          1           1        0.00    -27.200    -220.000    -240.000 
        57          1           8        0.00    -23.400    -220.000    -240.000 
        58          1          16        0.00    -19.600    -220.000    -240.000 
        59          1           1        0.00    -15.800    -220.000    -240.000 
        60          1          18        0.00    -12.000    -220.000    -240.000 
        61          1          11        0.00    -8.200    -220.000    -240.000 
        62          1          14        0.00    -4.400    -220.000    -240.000 
        63          1          15        0.00    -0.600    -220.000    -240.000 
        64          1           1        0.00     3.200    -220.000    -240.000 
        65          1          15        0.00     7.000    -220.000    -240.000 
        66          1           1        0.00     10.800    -220.000    -240.000 
        67          1          17        0.00     14.600    -220.000    -240.000 
        68          1           9        0.50     18.400    -220.000    -240.000 
        69          1           3        0.00     22.200    -220.000    -240.000 
        70          1          10        0.00     26.000    -220.000    -240.000 
        71          1           7        0.00     29.800    -220.000    -240.000 
        72          1           4       -1.00     33.600    -220.000    -240.000 
        73          1           6       -1.00     37.400    -220.000    -240.000 
        74          1          10        0.00     41.200    -220.000    -240.000 
        75          1          11        0.00     45.000    -220.000    -240.000 
        76          1           8        0.00     48.800    -220.000    -240.000 
        77          1          16        0.00     52.600    -220.000    -240.000 
        78          1           6       -1.00     56.400    -220.000    -240.000 
        79          1          12        1.00     60.200    -220.000    -240.000 
        80          1           1        0.00     64.000    -220.000    -240.000 
        81          1          12        1.00     67.800    -220.000    -240.000 
        82          1          16        0.00     71.600    -220.000    -240.000 
        83          1           7        0.00     75.400    -220.000    -240.000 
        84          1           7        0.00     79.200    -220.000    -240.000 
        85          1           7        0.00     83.000    -220.000    -240.000 
        86          1           6       -1.00     86.800    -220.000    -240.000 
        87          1           7        0.00     90.600    -220.000    -240.000 
        88          1           7        0.00     94.400    -220.000    -240.000 
        89          1           4       -1.00     98.200    -220.000    -240.000 
        90          1          15        0.00     102.000    -220.000    -240.000 
        91          1          11        0.00     105.800    -220.000    -240.000 
        92          1           6       -1.00     109.600    -220.000    -240.000 
        93          1          12        1.00     113.400    -220.000    -240.000 
        94          1           7        0.00     117.200    -220.000    -240.000 
        95          1           7        0.00     121.000    -220.000    -240.000 
        96          1          11        0.00     124.800    -220.000    -240.000 
        97          1          16        0.00     128.600    -220.000    -240.000 
        98          1          15        0.00     132.400    -220.000    -240.000 
        99          1          16        0.00     136.200    -220.000    -240.000 
       100          1          15        0.00     140.000    -220.000    -240.000 
       101          1           8        0.00     143.800    -220.000    -240.000 
       102          1           7        0.00     147.600    -220.000    -240.000 
       103          1           6       -1.00     151.400    -220.000    -240.000 
       104          1           1        0.00     155.200    -220.000    -240.000 
       105          1           8        0.00     159.000    -220.000    -240.000 
       106          1          10        0.00     162.800    -220.000    -240.000 
       107          1          11        0.00     166.600    -220.000    -240.000 
       108          1          15        0.00     170.400    -220.000    -240.000 
       109          1           6       -1.00     174.200    -220.000    -240.000 
       110          1          17        0.00     178.000    -220.000    -240.000 
       111          1           6       -1.00     181.800    -220.000    -240.000 
       112          1          12        1.00     185.600    -220.000    -240.000 
       113          1           1        0.00     189.400    -220.000    -240.000 
       114          1          12        1.00     193.200    -220.000    -240.000 
       115          1          16        0.00     197.000    -220.000    -240.000 
       116          1           6       -1.00     200.800    -220.000    -240.000 
       117          1           6       -1.00     204.600    -220.000    -240.000 
       118          1           3        0.00     208.400    -220.000    -240.000 
       119          1           7        0.00     212.200    -220.000    -240.000 
       120          1           8        0.00     216.000    -220.000    -240.000 
       121          1           4       -1.00     219.800    -220.000    -240.000 
       122          1           3        0.00     223.600    -220.000    -240.000 
       123          1          16        0.00     227.400    -220.000    -240.000 
       124          1          16        0.00     231.200    -220.000    -240.000 
       125          1           6       -1.00     235.000    -220.000    -240.000 
       126          1           3        0.00     238.800    -220.000    -240.000 
       127          1           8        0.00     242.600    -220.000    -240.000 
       128          1           3        0.00     246.400    -220.000    -240.000 
       129          1           8        0.00     250.200    -220.000    -240.000 
       130          1          12        1.00     254.000    -220.000    -240.000 
       131          1           6       -1.00     257.800    -220.000    -240.000 
       132          1          12        1.00     261.600    -220.000    -240.000 
       133          1          10        0.00     265.400    -220.000    -240.000 
       134          1           2        1.00     269.200    -220.000    -240.000 
       135          1          10        0.00     273.000    -220.000    -240.000 
       136          1           6       -1.00     276.800    -220.000    -240.000 
       137          1          16        0.00     280.600    -220.000    -240.000 
       138          1          15        0.00     284.400    -220.000    -240.000 
       139          1          20        0.00     288.200    -220.000    -240.000 
       140          1          11        0.00     292.000    -220.000    -240.000 
       141          1          17        0.00     295.800    -220.000    -240.000 
       142          1           8        0.00     299.600    -220.000    -240.000 
       143          1          14        0.00     303.400    -220.000    -240.000 
       144          1           4       -1.00     307.200    -220.000    -240.000 
       145          1          19        0.00     311.000    -220.000    -240.000 
       146          1           7        0.00     314.800    -220.000    -240.000 
       147          1           6       -1.00     318.600    -220.000    -240.000 
       148          1           1        0.00     322.400    -220.000    -240.000 
       149          1          17        0.00     326.200    -220.000    -240.000 
       150          1           8        0.00     330.000    -220.000    -240.000 
       151          1          11        0.00     333.800    -220.000    -240.000 
       152          1           8        0.00     337.600    -220.000    -240.000 
       153          1          17        0.00     341.400    -220.000    -240.000 
       154          1          16        0.00     345.200    -220.000    -240.000 
       155          1          17        0.00     349.000    -220.000    -240.000 
       156          1           7        0.00     352.800    -220.000    -240.000 
       157          1          15        0.00     356.600    -220.000    -240.000 
       158          1          11        0.00     360.400    -220.000    -240.000 
       159          1          17        0.00     364.200    -220.000    -240.000 
       160          1          16        0.00     368.000    -220.000    -240.000 
       161          1          16        0.00     371.800    -220.000    -240.000 
       162          1           1        0.00     375.600    -220.000    -240.000 
       163          1          16        0.00     379.400    -220.000    -240.000 
       164          1          16        0.00     383.200    -220.000    -240.000 
       165          1          11        0.00     387.000    -220.000    -240.000 
       166          1          17        0.00     390.800    -220.000    -240.000 
       167          1           8        0.00     394.600    -220.000    -240.000 
       168          1          14        0.00     398.400    -220.000    -240.000 
       169          1          16        0.00     402.200    -220.000    -240.000 
       170          1           3        0.00     406.000    -220.000    -240.000 
       171          1          18        0.00     409.800    -220.000    -240.000 
       172          1          16        0.00     413.600    -220.000    -240.000 
       173          1           1        0.00     417.400    -220.000    -240.000 
       174          1           1        0.00     421.200    -220.000    -240.000 
       175          1          10        0.00     425.000    -220.000    -240.000 
       176          1           1        0.00     428.800    -220.000    -240.000 
       177          1          15        0.00     432.600    -220.000    -240.000 
       178          1          16        0.00     436.400    -220.000    -240.000 
       179          1          16        0.00     440.200    -220.000    -240.000 
       180          1          16        0.00     444.000    -220.000    -240.000 
       181          1          17        0.00     447.800    -220.000    -240.000 
       182          1          10        0.00     451.600    -220.000    -240.000 
       183          1          10        0.00     455.400    -220.000    -240.000 
       184          1           3        0.00     459.200    -220.000    -240.000 
       185          1           6       -1.00     463.000    -220.000    -240.000 
       186          1           4       -1.00     466.800    -220.000    -240.000 
       187          1           1        0.00     470.600    -220.000    -240.000 
       188          1          16        0.00     474.400    -220.000    -240.000 
       189          1          14        0.00     478.200    -220.000    -240.000 
       190          1          14        0.00     482.000    -220.000    -240.000 
       191          1           9        0.50     485.800    -220.000    -240.000 
       192          1           7        0.00     489.600    -220.000    -240.000 
       193          1           8        0.00     493.400    -220.000    -240.000 
       194          1           8        0.00     497.200    -220.000    -240.000 
       195          1          20        0.00     501.000    -220.000    -240.000 
       196          1          15        0.00     504.800    -220.000    -240.000 
       197          1           1        0.00     508.600    -220.000    -240.000 
       198          1           1        0.00     512.400    -220.000    -240.000 
       199          1          16        0.00     516.200    -220.000    -240.000 
       200          1           1        0.00     520.000    -220.000    -240.000 
       201          1           3        0.00     523.800    -220.000    -240.000 
       202          1           3        0.00     527.600    -220.000    -240.000 
       203          1           8        0.00     531.400    -220.000    -240.000 
       204          1           1        0.00     535.200    -220.000    -240.000 
       205          1          11        0.00     539.000    -220.000    -240.000 
       206          1          11        0.00     542.800    -220.000    -240.000 
       207          1          14        0.00     546.600    -220.000    -240.000 
       208          1           7        0.00     550.400    -220.000    -240.000 
       209          1           3        0.00     554.200    -220.000    -240.000 
       210          1          14        0.00     558.000    -220.000    -240.000 
       211          1          15        0.00     561.800    -220.000    -240.000 
       212          1           9        0.50     565.600    -220.000    -240.000 
       213          1           9        0.50     569.400    -220.000    -240.000 
       214          1          20        0.00     573.200    -220.000    -240.000 
       215          1          16        0.00     577.000    -220.000    -240.000 
       216          1          15        0.00     580.800    -220.000    -240.000 
       217          1           8        0.00     584.600    -220.000    -240.000 
       218          1          14        0.00     588.400    -220.000    -240.000 
       219          1           8        0.00     592.200    -220.000    -240.000 
       220          1           8        0.00     596.000    -220.000    -240.000 
       221          1          16        0.00     599.800    -220.000    -240.000 
       222          1          14        0.00     603.600    -220.000    -240.000 
       223          1          16        0.00     607.400    -220.000    -240.000 
       224          1          15        0.00     611.200    -220.000    -240.000 
       225          1           7        0.00     615.000    -220.000    -240.000 
       226          1          10        0.00     618.800    -220.000    -240.000 
       227          1           8        0.00     622.600    -220.000    -240.000 
       228          1          15        0.00     626.400    -220.000    -240.000 
       229          1          11        0.00     630.200    -220.000    -240.000 
       230          1          16        0.00     634.000    -220.000    -240.000 
       231          1           7        0.00     637.800    -220.000    -240.000 
       232          1           9        0.50     641.600    -220.000    -240.000 
       233          1           9        0.50     645.400    -220.000    -240.000 
       234          1          15        0.00     649.200    -220.000    -240.000 
       235          1           9        0.50     653.000    -220.000    -240.000 
       236          1           9        0.50     656.800    -220.000    -240.000 
       237          1          15        0.00     660.600    -220.000    -240.000 
       238          1           9        0.50     664.400    -220.000    -240.000 
       239          1          14        0.00     668.200    -220.000    -240.000 
       240          1           7        0.00     672.000    -220.000    -240.000 
       241          1           9        0.50     675.800    -220.000    -240.000 
       242          1           9        0.50     679.600    -220.000    -240.000 
       243          1           9        0.50     683.400    -220.000    -240.000 
       244          1          16        0.00     687.200    -220.000    -240.000 
       245          1           7        0.00     691.000    -220.000    -240.000 
       246          1           9        0.50     694.800    -220.000    -240.000 
       247          1           7        0.00     698.600    -220.000    -240.000 
       248          1           7        0.00     702.400    -220.000    -240.000 
       249          1           7        0.00     706.200    -220.000    -240.000 
       250          1           2        1.00     710.000    -220.000    -240.000 
       251          1           2        1.00     713.800    -220.000    -240.000 
       252          1          16        0.00     717.600    -220.000    -240.000 
       253          1          15        0.00     721.400    -220.000    -240.000 
       254          1           1        0.00     725.200    -220.000    -240.000 
       255          1          16        0.00     729.000    -220.000    -240.000 
       256          1          15        0.00     732.800    -220.000    -240.000 
       257          1           9        0.50     736.600    -220.000    -240.000 
       258          1          15        0.00     740.400    -220.000    -240.000 
       259          1          15        0.00     744.200    -220.000    -240.000 
       260          1          15        0.00     748.000    -220.000    -240.000 
       261          1          14        0.00     751.800    -220.000    -240.000 
       262          1          17        0.00     755.600    -220.000    -240.000 
       263          1           9        0.50     759.400    -220.000    -240.000 
       264          1           2        1.00     763.200    -220.000    -240.000 
       265          1           3        0.00     767.000    -220.000    -240.000 
       266          1           1        0.00     770.800    -220.000    -240.000 
       267          1           1        0.00     774.600    -220.000    -240.000 
       268          1          14        0.00     778.400    -220.000    -240.000 
       269          1           3        0.00     782.200    -220.000    -240.000 
       270          1           7        0.00     786.000    -220.000    -240.000 
       271          1          11        0.00     789.800    -220.000    -240.000 
       272          1          15        0.00     793.600    -220.000    -240.000 
       273          1           9        0.50     797.400    -220.000    -240.000 
       274          1          11        0.00     801.200    -220.000    -240.000 
       275          1           1        0.00     805.000    -220.000    -240.000 
       276          1           3        0.00     808.800    -220.000    -240.000 
       277          1           3        0.00     812.600    -220.000    -240.000 
       278          1          11        0.00     816.400    -220.000    -240.000 
       279          1           3        0.00     820.200    -220.000    -240.000 
       280          1          12        1.00     824.000    -220.000    -240.000 
       281          1          15        0.00     827.800    -220.000    -240.000 
       282          1          15        0.00     831.600    -220.000    -240.000 
       283          1          16        0.00     835.400    -220.000    -240.000 
       284          1          15        0.00     839.200    -220.000    -240.000 
       285          1          18        0.00     843.000    -220.000    -240.000 
       286          1          16        0.00     846.800    -220.000    -240.000 
       287          1          16        0.00     850.600    -220.000    -240.000 
       288          1          19        0.00     854.400    -220.000    -240.000 
       289          1           7        0.00     858.200    -220.000    -240.000 
       290          1          16        0.00     862.000    -220.000    -240.000 
       291          1          15        0.00     865.800    -220.000    -240.000 
       292          1          16        0.00     869.600    -220.000    -240.000 
       293          1          15        0.00     873.400    -220.000    -240.000 
       294          1          17        0.00     877.200    -220.000    -240.000 
       295          1          15        0.00     881.000    -220.000    -240.000 
       296          1          16        0.00     884.800    -220.000    -240.000 
       297          1          16        0.00     888.600    -220.000    -240.000 
       298          1          16        0.00     892.400    -220.000    -240.000 
       299          1          18        0.00     896.200    -220.000    -240.000 
       300          1          16        0.00     900.000    -220.000    -240.000 
       301          1          15        0.00     903.800    -220.000    -240.000 
       302          1           8        0.00     907.600    -220.000    -240.000 
       303          1           8        0.00     911.400    -220.000    -240.000 
       304          1           8        0.00     915.200    -220.000    -240.000 
       305          1           8        0.00     919.000    -220.000    -240.000 
       306          1          19        0.00     922.800    -220.000    -240.000 
       307          1           8        0.00     926.600    -220.000    -240.000 
       308          1           8        0.00     930.400    -220.000    -240.000 
       309          1          18        0.00     934.200    -220.000    -240.000 
       310          1           8        0.00     938.000    -220.000    -240.000 
       311          1           8        0.00     941.800    -220.000    -240.000 
       312          1          16        0.00     945.600    -220.000    -240.000 
       313          1           7        0.00     949.400    -220.000    -240.000 
       314          1           8        0.00     953.200    -220.000    -240.000 
       315          1           2        1.00     957.000    -220.000    -240.000 
       316          1           4       -1.00     960.800    -220.000    -240.000 
       317          1           9        0.50     964.600    -220.000    -240.000 
       318          1           2        1.00     968.400    -220.000    -240.000 
       319          1           2        1.00     972.200    -220.000    -240.000 
       320          1           8        0.00     976.000    -220.000    -240.000 
       321          1          11        0.00     979.800    -220.000    -240.000 
       322          1           3        0.00     983.600    -220.000    -240.000 
       323          1           8        0.00     987.400    -220.000    -240.000 
       324          1           8        0.00     991.200    -220.000    -240.000 
       325          1          10        0.00     995.000    -220.000    -240.000 
       326          1          17        0.00     998.800    -220.000    -240.000 
       327          1          15        0.00     1002.600    -220.000    -240.000 
       328          1          11        0.00     1006.400    -220.000    -240.000 
       329          1           3        0.00     1010.200    -220.000    -240.000 
       330          1          16        0.00     1014.000    -220.000    -240.000 
       331          1          10        0.00     1017.800    -220.000    -240.000 
       332          1          16        0.00     1021.600    -220.000    -240.000 
       333          1          15        0.00     1025.400    -220.000    -240.000 
       334          1          11        0.00     1029.200    -220.000    -240.000 
       335          1          12        1.00     1033.000    -220.000    -240.000 
       336          1          12        1.00     1036.800    -220.000    -240.000 
       337          1           3        0.00     1040.600    -220.000    -240.000 
       338          1          14        0.00     1044.400    -220.000    -240.000 
       339          1           1        0.00     1048.200    -220.000    -240.000 
       340          1          16        0.00     1052.000    -220.000    -240.000 
       341          1           3        0.00     1055.800    -220.000    -240.000 
       342          1           9        0.50     1059.600    -220.000    -240.000 
       343          1          10        0.00     1063.400    -220.000    -240.000 
       344          1           7        0.00     1067.200    -220.000    -240.000 
       345          1          11        0.00     1071.000    -220.000    -240.000 
       346          1           7        0.00     1074.800    -220.000    -240.000 
       347          1          12        1.00     1078.600    -220.000    -240.000 
       348          1          19        0.00     1082.400    -220.000    -240.000 
       349          1           1        0.00     1086.200    -220.000    -240.000 
       350          1           2        1.00     1090.000    -220.000    -240.000 
       351          1          15        0.00     1093.800    -220.000    -240.000 