ITEM: TIMESTEP
0
ITEM: NUMBER OF ATOMS
448
ITEM: BOX BOUNDS pp pp pp
-1.2500000000000000e+03 1.2500000000000000e+03
-1.2500000000000000e+03 1.2500000000000000e+03
-1.2500000000000000e+03 1.2500000000000000e+03
ITEM: ATOMS id type x y z
266 1 -1249.2 260 240
267 1 -1245.4 260 240
268 14 -1241.6 260 240
269 3 -1237.8 260 240
270 7 -1234 260 240
271 11 -1230.2 260 240
272 15 -1226.4 260 240
273 9 -1222.6 260 240
274 11 -1218.8 260 240
275 1 -1215 260 240
276 3 -1211.2 260 240
277 3 -1207.4 260 240
278 11 -1203.6 260 240
279 3 -1199.8 260 240
280 12 -1196 260 240
281 15 -1192.2 260 240
282 15 -1188.4 260 240
283 16 -1184.6 260 240
284 15 -1180.8 260 240
285 18 -1177 260 240
286 16 -1173.2 260 240
287 16 -1169.4 260 240
288 19 -1165.6 260 240
289 7 -1161.8 260 240
290 16 -1158 260 240
291 15 -1154.2 260 240
292 16 -1150.4 260 240
293 15 -1146.6 260 240
294 17 -1142.8 260 240
295 15 -1139 260 240
296 16 -1135.2 260 240
297 16 -1131.4 260 240
298 16 -1127.6 260 240
299 18 -1123.8 260 240
300 16 -1120 260 240
301 15 -1116.2 260 240
302 8 -1112.4 260 240
303 8 -1108.6 260 240
304 8 -1104.8 260 240
305 8 -1101 260 240
306 19 -1097.2 260 240
307 8 -1093.4 260 240
308 8 -1089.6 260 240
309 18 -1085.8 260 240
310 8 -1082 260 240
311 8 -1078.2 260 240
312 16 -1074.4 260 240
313 7 -1070.6 260 240
314 8 -1066.8 260 240
315 2 -1063 260 240
316 4 -1059.2 260 240
317 9 -1055.4 260 240
318 2 -1051.6 260 240
319 2 -1047.8 260 240
320 8 -1044 260 240
321 11 -1040.2 260 240
322 3 -1036.4 260 240
323 8 -1032.6 260 240
324 8 -1028.8 260 240
325 10 -1025 260 240
326 17 -1021.2 260 240
327 15 -1017.4 260 240
328 11 -1013.6 260 240
329 3 -1009.8 260 240
330 16 -1006 260 240
331 10 -1002.2 260 240
332 16 -998.4 260 240
333 15 -994.6 260 240
334 11 -990.8 260 240
335 12 -987 260 240
336 12 -983.2 260 240
337 3 -979.4 260 240
338 14 -975.6 260 240
339 1 -971.8 260 240
340 16 -968 260 240
341 3 -964.2 260 240
342 9 -960.4 260 240
343 10 -956.6 260 240
344 7 -952.8 260 240
345 11 -949 260 240
346 7 -945.2 260 240
347 12 -941.4 260 240
348 19 -937.6 260 240
349 1 -933.8 260 240
350 2 -930 260 240
351 15 -926.2 260 240
352 16 -922.4 260 240
353 16 -918.6 260 240
354 1 -914.8 260 240
355 14 -911 260 240
356 1 -907.2 260 240
357 15 -903.4 260 240
358 12 -899.6 260 240
359 16 -895.8 260 240
360 18 -892 260 240
361 13 -888.2 260 240
362 6 -884.4 260 240
363 4 -880.6 260 240
364 16 -876.8 260 240
365 11 -873 260 240
366 3 -869.2 260 240
367 2 -865.4 260 240
368 1 -861.6 260 240
369 4 -857.8 260 240
370 3 -854 260 240
371 10 -850.2 260 240
372 14 -846.4 260 240
373 15 -842.6 260 240
374 14 -838.8 260 240
375 15 -835 260 240
376 4 -831.2 260 240
377 2 -827.4 260 240
378 15 -823.6 260 240
379 2 -819.8 260 240
380 17 -816 260 240
381 14 -812.2 260 240
382 4 -808.4 260 240
383 13 -804.6 260 240
384 9 -800.8 260 240
385 16 -797 260 240
386 11 -793.2 260 240
387 6 -789.4 260 240
388 16 -785.6 260 240
389 16 -781.8 260 240
390 11 -778 260 240
391 10 -774.2 260 240
392 4 -770.4 260 240
393 10 -766.6 260 240
394 13 -762.8 260 240
395 2 -759 260 240
396 1 -755.2 260 240
397 6 -751.4 260 240
398 3 -747.6 260 240
399 4 -743.8 260 240
400 17 -740 260 240
401 10 -736.2 260 240
402 12 -732.4 260 240
403 1 -728.6 260 240
404 12 -724.8 260 240
405 17 -721 260 240
406 19 -717.2 260 240
407 8 -713.4 260 240
408 12 -709.6 260 240
409 12 -705.8 260 240
410 12 -702 260 240
411 8 -698.2 260 240
412 7 -694.4 260 240
413 16 -690.6 260 240
414 16 -686.8 260 240
415 11 -683 260 240
416 14 -679.2 260 240
417 15 -675.4 260 240
418 13 -671.6 260 240
419 6 -667.8 260 240
420 4 -664 260 240
421 8 -660.2 260 240
422 14 -656.4 260 240
423 11 -652.6 260 240
424 4 -648.8 260 240
425 4 -645 260 240
426 8 -641.2 260 240
427 2 -637.4 260 240
428 8 -633.6 260 240
429 4 -629.8 260 240
430 7 -626 260 240
431 15 -622.2 260 240
432 11 -618.4 260 240
433 9 -614.6 260 240
434 16 -610.8 260 240
435 8 -607 260 240
436 11 -603.2 260 240
437 8 -599.4 260 240
438 16 -595.6 260 240
439 15 -591.8 260 240
440 9 -588 260 240
441 5 -584.2 260 240
442 14 -580.4 260 240
443 16 -576.6 260 240
444 9 -572.8 260 240
445 7 -569 260 240
446 3 -565.2 260 240
447 8 -561.4 260 240
448 6 -557.6 260 240
1 13 243.8 260 240
2 8 247.6 260 240
3 4 251.4 260 240
4 19 255.2 260 240
5 8 259 260 240
6 14 262.8 260 240
7 8 266.6 260 240
8 20 270.4 260 240
9 11 274.2 260 240
10 20 278 260 240
11 7 281.8 260 240
12 16 285.6 260 240
13 3 289.4 260 240
14 17 293.2 260 240
15 8 297 260 240
16 3 300.8 260 240
17 12 304.6 260 240
18 16 308.4 260 240
19 1 312.2 260 240
20 14 316 260 240
21 15 319.8 260 240
22 20 323.6 260 240
23 2 327.4 260 240
24 14 331.2 260 240
25 9 335 260 240
26 15 338.8 260 240
27 9 342.6 260 240
28 11 346.4 260 240
29 7 350.2 260 240
30 15 354 260 240
31 15 357.8 260 240
32 9 361.6 260 240
33 9 365.4 260 240
34 9 369.2 260 240
35 7 373 260 240
36 3 376.8 260 240
37 1 380.6 260 240
38 17 384.4 260 240
39 15 388.2 260 240
40 16 392 260 240
41 15 395.8 260 240
42 1 399.6 260 240
43 1 403.4 260 240
44 14 407.2 260 240
45 10 411 260 240
46 3 414.8 260 240
47 3 418.6 260 240
48 3 422.4 260 240
49 17 426.2 260 240
50 1 430 260 240
51 1 433.8 260 240
52 3 437.6 260 240
53 8 441.4 260 240
54 16 445.2 260 240
55 16 449 260 240
56 1 452.8 260 240
57 8 456.6 260 240
58 16 460.4 260 240
59 1 464.2 260 240
60 18 468 260 240
61 11 471.8 260 240
62 14 475.6 260 240
63 15 479.4 260 240
64 1 483.2 260 240
65 15 487 260 240
66 1 490.8 260 240
67 17 494.6 260 240
68 9 498.4 260 240
69 3 502.2 260 240
70 10 506 260 240
71 7 509.8 260 240
72 4 513.6 260 240
73 6 517.4 260 240
74 10 521.2 260 240
75 11 525 260 240
76 8 528.8 260 240
77 16 532.6 260 240
78 6 536.4 260 240
79 12 540.2 260 240
80 1 544 260 240
81 12 547.8 260 240
82 16 551.6 260 240
83 7 555.4 260 240
84 7 559.2 260 240
85 7 563 260 240
86 6 566.8 260 240
87 7 570.6 260 240
88 7 574.4 260 240
89 4 578.2 260 240
90 15 582 260 240
91 11 585.8 260 240
92 6 589.6 260 240
93 12 593.4 260 240
94 7 597.2 260 240
95 7 601 260 240
96 11 604.8 260 240
97 16 608.6 260 240
98 15 612.4 260 240
99 16 616.2 260 240
100 15 620 260 240
101 8 623.8 260 240
102 7 627.6 260 240
103 6 631.4 260 240
104 1 635.2 260 240
105 8 639 260 240
106 10 642.8 260 240
107 11 646.6 260 240
108 15 650.4 260 240
109 6 654.2 260 240
110 17 658 260 240
111 6 661.8 260 240
112 12 665.6 260 240
113 1 669.4 260 240
114 12 673.2 260 240
115 16 677 260 240
116 6 680.8 260 240
117 6 684.6 260 240
118 3 688.4 260 240
119 7 692.2 260 240
120 8 696 260 240
121 4 699.8 260 240
122 3 703.6 260 240
123 16 707.4 260 240
124 16 711.2 260 240
125 6 715 260 240
126 3 718.8 260 240
127 8 722.6 260 240
128 3 726.4 260 240
129 8 730.2 260 240
130 12 734 260 240
131 6 737.8 260 240
132 12 741.6 260 240
133 10 745.4 260 240
134 2 749.2 260 240
135 10 753 260 240
136 6 756.8 260 240
137 16 760.6 260 240
138 15 764.4 260 240
139 20 768.2 260 240
140 11 772 260 240
141 17 775.8 260 240
142 8 779.6 260 240
143 14 783.4 260 240
144 4 787.2 260 240
145 19 791 260 240
146 7 794.8 260 240
147 6 798.6 260 240
148 1 802.4 260 240
149 17 806.2 260 240
150 8 810 260 240
151 11 813.8 260 240
152 8 817.6 260 240
153 17 821.4 260 240
154 16 825.2 260 240
155 17 829 260 240
156 7 832.8 260 240
157 15 836.6 260 240
158 11 840.4 260 240
159 17 844.2 260 240
160 16 848 260 240
161 16 851.8 260 240
162 1 855.6 260 240
163 16 859.4 260 240
164 16 863.2 260 240
165 11 867 260 240
166 17 870.8 260 240
167 8 874.6 260 240
168 14 878.4 260 240
169 16 882.2 260 240
170 3 886 260 240
171 18 889.8 260 240
172 16 893.6 260 240
173 1 897.4 260 240
174 1 901.2 260 240
175 10 905 260 240
176 1 908.8 260 240
177 15 912.6 260 240
178 16 916.4 260 240
179 16 920.2 260 240
180 16 924 260 240
181 17 927.8 260 240
182 10 931.6 260 240
183 10 935.4 260 240
184 3 939.2 260 240
185 6 943 260 240
186 4 946.8 260 240
187 1 950.6 260 240
188 16 954.4 260 240
189 14 958.2 260 240
190 14 962 260 240
191 9 965.8 260 240
192 7 969.6 260 240
193 8 973.4 260 240
194 8 977.2 260 240
195 20 981 260 240
196 15 984.8 260 240
197 1 988.6 260 240
198 1 992.4 260 240
199 16 996.2 260 240
200 1 1000 260 240
201 3 1003.8 260 240
202 3 1007.6 260 240
203 8 1011.4 260 240
204 1 1015.2 260 240
205 11 1019 260 240
206 11 1022.8 260 240
207 14 1026.6 260 240
208 7 1030.4 260 240
209 3 1034.2 260 240
210 14 1038 260 240
211 15 1041.8 260 240
212 9 1045.6 260 240
213 9 1049.4 260 240
214 20 1053.2 260 240
215 16 1057 260 240
216 15 1060.8 260 240
217 8 1064.6 260 240
218 14 1068.4 260 240
219 8 1072.2 260 240
220 8 1076 260 240
221 16 1079.8 260 240
222 14 1083.6 260 240
223 16 1087.4 260 240
224 15 1091.2 260 240
225 7 1095 260 240
226 10 1098.8 260 240
227 8 1102.6 260 240
228 15 1106.4 260 240
229 11 1110.2 260 240
230 16 1114 260 240
231 7 1117.8 260 240
232 9 1121.6 260 240
233 9 1125.4 260 240
234 15 1129.2 260 240
235 9 1133 260 240
236 9 1136.8 260 240
237 15 1140.6 260 240
238 9 1144.4 260 240
239 14 1148.2 260 240
240 7 1152 260 240
241 9 1155.8 260 240
242 9 1159.6 260 240
243 9 1163.4 260 240
244 16 1167.2 260 240
245 7 1171 260 240
246 9 1174.8 260 240
247 7 1178.6 260 240
248 7 1182.4 260 240
249 7 1186.2 260 240
250 2 1190 260 240
251 2 1193.8 260 240
252 16 1197.6 260 240
253 15 1201.4 260 240
254 1 1205.2 260 240
255 16 1209 260 240
256 15 1212.8 260 240
257 9 1216.6 260 240
258 15 1220.4 260 240
259 15 1224.2 260 240
260 15 1228 260 240
261 14 1231.8 260 240
262 17 1235.6 260 240
263 9 1239.4 260 240
264 2 1243.2 260 240
265 3 1247 260 240
ITEM: TIMESTEP
100000
ITEM: NUMBER OF ATOMS
448
ITEM: BOX BOUNDS pp pp pp
-1.2500000000000000e+03 1.2500000000000000e+03
-1.2500000000000000e+03 1.2500000000000000e+03
-1.2500000000000000e+03 1.2500000000000000e+03
ITEM: ATOMS id type x y z
286 16 -1238.43 261.607 227.226
285 18 -1241.12 264.355 226.961
283 16 -1246.7 268.208 224.698
284 15 -1244.67 264.704 225.365
287 16 -1235.1 262.926 226.46
288 19 -1232.26 264.531 224.26
282 15 -1248.32 268.791 221.23
289 7 -1228.3 264.998 224.574
291 15 -1223.71 268.511 226.74
290 16 -1226.82 268.363 224.715
292 16 -1221.2 269.2 229.193
293 15 -1217.82 270.53 227.986
295 15 -1213.47 265.613 230.684
294 17 -1214.45 268.554 228.395
296 16 -1210.86 264.968 233.489
303 8 -1195.11 264.268 233.417
304 8 -1195.23 267.828 233.978
448 6 -936.692 240.691 251.421
447 8 -935.053 244.222 250.492
446 3 -932.437 244.741 253.041
297 16 -1208.46 262.62 234.704
300 16 -1200.27 262.596 240.032
299 18 -1202 260.543 237.523
298 16 -1205.15 261.959 236.088
301 15 -1196.33 262.878 239.981
305 8 -1193.02 268.453 237.047
306 19 -1192.14 271.817 237.704
302 8 -1195.9 261.852 236.19
310 8 -1180.98 268.894 237.437
311 8 -1178.47 271.706 237.383
315 2 -1171.9 271.339 240.609
309 18 -1184.06 270.629 238.798
316 4 -1168.04 271.38 242.001
317 9 -1164.89 270.217 243.484
320 8 -1155.5 272.536 248.254
318 2 -1162.14 271.697 245.995
319 2 -1159.24 272.306 248.816
323 8 -1151.91 269.943 248.318
322 3 -1150.47 272.564 250.463
324 8 -1149.3 267.492 249.494
326 17 -1147.02 270.866 245.12
325 10 -1145.84 268.822 247.763
378 15 -1009.47 269.379 253.759
379 2 -1007.85 265.957 253.089
312 16 -1178.92 275.273 238.825
307 8 -1188.9 273.684 237.995
308 8 -1186.08 273.834 240.283
313 7 -1176.03 276.587 236.656
314 8 -1174.07 273.844 238.215
321 11 -1152.68 274.901 248.523
327 15 -1144.76 274.176 244.965
329 3 -1138.41 275.073 244.128
328 11 -1142.05 276.118 242.996
330 16 -1135.02 276.818 244.215
331 10 -1132.2 279.3 244.798
332 16 -1128.75 280.281 245.784
333 15 -1125.08 279.534 246.553
334 11 -1122.29 277.32 248.274
335 12 -1119.4 274.879 248.344
336 12 -1115.68 276.247 249.2
340 16 -1104.32 274.905 244.004
343 10 -1094.56 278.524 242.608
338 14 -1108.2 277.01 249.15
341 3 -1101.33 276.533 242.166
337 3 -1111.8 276.831 250.253
339 1 -1106.53 274.712 246.653
342 9 -1098.54 278.93 242.497
344 7 -1090.75 278 243.362
345 11 -1088.6 275.408 245.088
348 19 -1079.17 277.729 247.237
350 2 -1074.3 274.08 250.068
349 1 -1075.31 277.069 247.445
346 7 -1085.39 274.019 246.176
347 12 -1083.06 276.835 246.721
351 15 -1070.54 274.688 250.795
352 16 -1067.31 275.981 253.121
364 16 -1036.46 280.863 247.948
361 13 -1043.28 279.225 251.288
362 6 -1040.95 278.299 248.378
363 4 -1038.77 278.687 245.315
365 11 -1034.17 283.416 248.985
366 3 -1030.83 284.531 246.837
367 2 -1028.07 287.033 245.976
369 4 -1022.03 285.26 246.538
370 3 -1021.52 282.864 249.498
371 10 -1019.01 280.756 251.88
372 14 -1017.67 277.312 251.999
368 1 -1024.96 285.514 244.319
443 16 -932.049 247.147 262.641
444 9 -930.138 246.325 259.469
445 7 -930.075 246.358 255.811
442 14 -931.458 248.737 265.99
441 5 -930.498 252.235 264.076
374 14 -1017.52 272.758 255.969
377 2 -1009.61 273.071 255.138
387 6 -1000.95 265.242 269.251
388 16 -1000.18 266.523 272.694
381 14 -1007.2 259.706 254.999
384 9 -1008.3 260.302 264.952
385 16 -1005.32 260.939 267.191
386 11 -1001.67 262.507 266.39
383 13 -1009.6 258.167 261.805
382 4 -1009.45 258.128 257.954
389 16 -998.425 269.574 272.012
380 17 -1009.66 262.746 254.739
390 11 -996.262 272.531 270.224
408 12 -960.726 267.57 272.147
402 12 -969.217 270.342 272.918
401 10 -969.47 271.812 269.838
409 12 -958.853 266.551 268.888
418 13 -948.474 270.823 270.707
410 12 -955.788 266.211 266.822
411 8 -954.438 262.806 266.161
412 7 -955.682 259.712 267.933
436 11 -939.479 258.153 266.205
437 8 -938.117 258.333 262.713
435 8 -939.181 261.56 268.096
419 6 -951.925 269.522 269.839
420 4 -953.842 272.115 267.506
417 15 -947.131 267.859 272.562
413 16 -955.119 260.535 271.618
439 15 -932.952 258.604 260.367
440 9 -931.697 255.701 262.838
430 7 -935.987 272.466 272.132
438 16 -936.111 260.843 260.86
434 16 -935.929 263.305 268.175
431 15 -935.072 271.814 268.522
432 11 -932.533 269.905 266.768
433 9 -933.871 266.474 268.197
356 1 -1057.77 279.34 259.863
353 16 -1064.54 274.759 255.857
354 1 -1063.01 278.085 256.998
355 14 -1060.55 276.73 259.708
357 15 -1054.33 281.425 260.348
359 16 -1048.34 281.24 256.218
358 12 -1051.42 280.26 258.205
360 18 -1045.72 279.515 254.136
373 15 -1020.01 275.035 254.297
375 15 -1014.76 274.891 257.545
376 4 -1010.79 275.262 257.868
396 1 -979.086 279.88 268.568
391 10 -993.773 275.094 271.404
392 4 -991.469 277.521 272.916
393 10 -987.736 277.581 272.889
394 13 -984.917 276.528 270.891
395 2 -982.266 277.687 268.401
399 4 -970.202 277.012 267.966
397 6 -976.192 278.93 270.6
398 3 -973.568 278 267.577
400 17 -967.402 274.61 268.343
426 8 -941.948 275.455 267.541
425 4 -940.113 277.179 264.798
424 4 -942.985 279.278 263.841
423 11 -944.773 276.02 262.236
427 2 -943.409 275.99 270.975
422 14 -948.52 274.558 263.303
421 8 -951.933 273.668 264.436
428 8 -940.837 273.457 272.015
403 1 -968.455 271.56 276.284
405 17 -962.071 272.218 277.67
406 19 -959.066 269.882 278.289
407 8 -958.445 269.275 274.613
404 12 -965.437 271.652 278.72
429 4 -938.88 272.005 274.913
415 11 -949.771 262.144 274.902
416 14 -946.975 265.003 274.842
414 16 -953.464 262.28 274.472
105 8 789.247 245.149 214.295
106 10 793.167 246.168 213.536
44 14 663.369 269.77 213.709
45 10 665.751 272.832 214.174
46 3 669.161 272.297 213.413
74 10 713.495 265.693 214.05
72 4 705.963 266.569 212.846
73 6 709.723 265.098 212.701
75 11 715.477 266.117 210.765
76 8 716.88 269.567 209.944
79 12 723.039 271.829 212.613
1 13 619.198 286.06 207.799
2 8 619.679 286.44 211.639
3 4 618.937 283.869 214.306
47 3 672.239 274.086 211.382
48 3 674.393 277.052 210.553
49 17 675.972 278.875 207.847
52 3 678.048 287.651 208.895
51 1 679.387 284.461 209.765
50 1 676.241 282.409 208.817
55 16 680.342 286.028 214.795
53 8 675.613 288.118 212.177
60 18 692.027 280.04 213.563
62 14 698.526 278.456 210.541
63 15 700.925 276.356 212.379
61 11 695.415 279.132 212.825
59 1 690.818 281.581 210.006
58 16 687.362 283.294 211.021
64 1 703.846 275.703 214.715
77 16 717.102 273.497 210.216
78 6 720.446 274.215 212.13
96 11 765.436 252.618 224.443
97 16 768.468 250.467 225.059
98 15 771.88 248.619 223.509
99 16 775.733 248.097 223.938
100 15 779.137 250.109 224.957
103 6 783.867 243.721 218.627
101 8 782.207 248.068 224.798
102 7 783.406 246.146 221.643
104 1 786.189 245.923 216.507
109 6 795.375 251.417 221.311
110 17 794.017 251.95 224.841
108 15 795.631 247.787 220.69
107 11 794.751 246.635 217.021
111 6 790.816 253.745 225.634
126 3 831.311 251.989 224.323
127 8 834.255 250.187 225.924
128 3 837.966 249.656 225.697
125 6 827.917 251.213 222.883
124 16 824.419 253.221 222.626
129 8 840.725 247.595 226.527
130 12 844.566 247.706 226.032
131 6 847.606 249.14 223.918
134 2 855.554 249.124 230.482
132 12 851.65 249.804 224.459
133 10 853.355 250.883 227.822
135 10 858.171 249.903 232.99
136 6 861.363 251.946 232.578
32 9 638.099 271.283 224.856
33 9 641.427 271.448 223.85
34 9 642.962 270.954 220.076
35 7 644.14 267.423 219.927
43 1 663.566 266.765 216.118
42 1 660.045 267.401 217.431
36 3 644.663 266.224 216.278
38 17 648.734 260.706 216.576
39 15 652.224 260.748 217.852
41 15 657.51 265.312 215.066
40 16 655.198 262.514 215.959
37 1 647.981 264.46 217.188
65 15 702.763 273.403 217.411
67 17 697.685 270.851 219.837
66 1 699.62 271.717 216.405
69 3 700.773 264.557 221.956
68 9 699.067 267.821 222.323
71 7 704.281 264.652 215.44
80 1 722.187 269.125 214.865
70 10 703.6 265.561 219.304
81 12 721.536 265.842 216.252
87 7 739.601 261.46 217.226
85 7 733.088 262.472 218.081
86 6 736.159 261.592 215.681
83 7 727.232 264.631 218.427
84 7 730.192 263.548 220.326
82 16 725.013 264.69 215.05
88 7 742.673 259.745 217.174
89 4 745.828 258.602 219.009
90 15 748.574 256.165 219.057
92 6 753.435 254.704 224.492
91 11 750.326 255.719 222.517
94 7 759.095 256.533 222.915
93 12 756.78 255.165 225.906
95 7 762.977 255.644 223.299
112 12 792.138 257.185 227.164
113 1 796.327 257.033 226.948
114 12 799.783 256.393 225.857
115 16 802.475 258.037 223.432
116 6 803.365 256.61 220.414
118 3 809.069 258.179 221.306
119 7 811.007 261.247 220.934
117 6 806.905 255.152 221.341
120 8 814.392 259.834 220.781
121 4 817.798 259.338 219.021
123 16 824.73 255.693 219.505
122 3 821.503 258.59 218.819
141 17 873.072 260.712 222.06
142 8 876.008 262.369 220.955
140 11 870.67 258.658 224.829
137 16 863.285 255.218 231.292
138 15 865.481 257.482 229.394
139 20 869.068 258.756 228.164
143 14 878.891 263.881 223.062
144 4 882.465 264.817 223.5
145 19 886.031 262.885 223.389
146 7 889.831 263.194 222.338
149 17 895.645 264.266 229.075
150 8 897.549 264.704 232.08
147 6 893.05 264.545 223.781
148 1 894.459 266.884 226.482
152 8 902.712 264.954 232.748
153 17 905.457 265.287 230.232
154 16 907.197 268.179 228.831
155 17 910.313 270.201 228.168
156 7 911.877 269.858 225.076
157 15 914.113 267.666 223.413
158 11 917.963 268.649 224.296
159 17 921.581 269.112 225.713
162 1 929.06 266.193 228.724
163 16 929.851 266.359 232.597
160 16 922.278 266.886 228.573
161 16 925.402 264.906 228.235
164 16 932.366 263.076 232.625
165 11 935.461 262.099 230.857
166 17 938.085 263.976 233.068
167 8 941.854 264.512 232.86
168 14 943.684 265.706 229.903
169 16 946.282 266.936 232.007
172 16 955.207 262.213 233.78
170 3 948.662 265.448 234.359
176 1 968.639 264.904 229.326
177 15 971.513 267.104 228.579
174 1 962.398 263.255 233.008
178 16 973.751 270.332 228.881
175 10 965.544 264.898 231.539
173 1 958.772 262.013 232.065
179 16 977.357 269.823 229.777
180 16 980.781 269.119 228.505
183 10 986.539 260.961 227.859
184 3 990.296 260.65 228.193
185 6 993.418 260.365 230.036
181 17 981.506 265.445 228.579
182 10 982.943 262.682 226.821
186 4 996.582 260.113 232.325
188 16 997.878 265.806 229.321
187 1 998.936 263.253 232.175
191 9 1007.59 267.63 232.66
190 14 1003.68 267.193 231.991
189 14 1001.2 267.854 229.303
281 15 1248.37 270.859 220.633
279 3 1241.34 272.412 221.353
280 12 1244.74 272.442 219.706
9 11 611.061 292.885 222.235
7 8 616.379 292.881 221.897
6 14 619.7 291.837 220.502
5 8 618.365 288.14 219.548
4 19 617.3 285.174 217.452
10 20 608.497 291.274 224.522
11 7 609.451 289.183 227.378
13 3 613.04 290.319 233.556
12 16 609.719 289.611 231.576
26 15 624.207 280.339 233.694
14 17 616.558 291.38 234.351
30 15 633.495 275.041 229.262
29 7 632.026 274.281 232.615
31 15 636.145 274.052 227.124
54 16 677.267 287.733 215.885
56 1 683.257 283.519 215.378
57 8 686.729 282.86 215.051
230 16 1103.33 278.74 231.273
229 11 1099.43 279.145 232.183
231 7 1106.98 278.887 229.606
233 9 1111.85 283.472 228.374
232 9 1108.57 282.089 230.109
234 15 1114.38 281.408 226.462
235 9 1117.8 279.483 226.222
236 9 1120.84 280.902 227.766
237 15 1123.06 283.956 226.452
238 9 1126.32 283.503 227.781
239 14 1130.3 283.135 226.838
242 9 1137.82 285.745 232.874
240 7 1133.64 284.24 226.879
241 9 1135.01 284.277 230.673
273 9 1222.21 276.718 224.514
271 11 1216.99 278.745 227.853
272 15 1218.33 276.91 224.659
270 7 1214.55 275.884 228.417
269 3 1212.66 273.991 231.307
268 14 1211.43 276.455 233.945
274 11 1225.7 275.326 222.914
275 1 1228.9 276.84 223.637
276 3 1232.1 276.214 221.811
277 3 1235.77 277.134 222.577
278 11 1239.28 275.782 222.097
8 20 613.476 293.594 219.796
151 11 899.583 264.594 235.076
171 18 952.058 264.398 234.65
192 7 1007.06 270.801 234.933
193 8 1009.53 271.473 237.541
199 16 1026.93 264.793 241.443
198 1 1025.81 267.623 239.922
197 1 1022.34 267.455 238.722
196 15 1018.47 268.852 240.006
195 20 1015.86 271.901 239.414
200 1 1028.84 261.646 241.905
201 3 1031.66 263.003 244.128
202 3 1033.38 265.012 240.867
203 8 1036.41 265.326 242.617
205 11 1041.98 267.061 244.531
204 1 1039.07 267.705 241.91
206 11 1045.01 269.087 244.842
207 14 1044.86 272.815 243.776
209 3 1051.84 273.09 241.802
211 15 1057.93 272.326 240.011
212 9 1060.34 271.586 243.042
213 9 1063.41 270.697 245.176
214 20 1066.66 272.278 245.703
215 16 1068.2 272.567 241.821
220 8 1079.63 272.373 240.614
222 14 1085.37 270.388 241.507
221 16 1081.7 271.076 243.503
223 16 1088.26 269.016 239.87
224 15 1091.88 270.808 240.544
19 1 611.47 287.334 245.912
17 12 618.268 290.945 245.136
21 15 613.736 282.815 241.929
24 14 622.816 281.177 239.516
23 2 620.843 284.059 241.261
18 16 614.607 289.407 245.345
22 20 616.813 284.696 241.087
25 9 621.917 279.697 236.211
20 14 610.609 284.149 244
16 3 618.423 291.804 241.599
15 8 618.238 292.589 237.624
28 11 630.56 276.792 235.166
27 9 627.083 278.158 235.417
194 8 1012.72 273.497 237.903
208 7 1048.29 273.847 242.844
210 14 1054.49 274.231 239.345
216 15 1071.9 273.554 242.148
217 8 1072.76 276.148 238.958
219 8 1078.97 276.193 239.937
218 14 1076.14 275.569 237.775
225 7 1092.07 274.612 241.347
228 15 1097.07 279.348 235.292
226 10 1093.92 277.938 241.806
227 8 1095.45 278.412 238.31
243 9 1140.43 284.889 235.221
244 16 1143.8 286.692 236.256
245 7 1146.58 286.173 238.783
246 9 1149.8 286.766 239.869
247 7 1151.97 283.421 240.989
250 2 1161.37 280.086 240.679
252 16 1167.03 277.203 244.322
249 7 1158.95 282.052 238.716
248 7 1155.15 281.878 239.308
251 2 1163.34 278.014 243.175
253 15 1170.42 276.207 245.17
254 1 1173.86 277.533 246.2
255 16 1177.25 279.361 245.635
261 14 1189.12 280.575 240.355
259 15 1188.93 285.307 244.859
260 15 1190.49 283.338 242.341
256 15 1180.06 281.147 247.101
257 9 1183.76 282.368 246.841
258 15 1185.19 284.602 243.943
263 9 1195.31 276.581 239.961
264 2 1199.07 278.339 239.798
265 3 1202.64 279.603 240.122
266 1 1206.08 278.638 238.683
267 1 1209.42 278.713 236.177
262 17 1192.36 278.643 239.944
ITEM: TIMESTEP
200000
ITEM: NUMBER OF ATOMS
448
ITEM: BOX BOUNDS pp pp pp
-1.2500000000000000e+03 1.2500000000000000e+03
-1.2500000000000000e+03 1.2500000000000000e+03
-1.2500000000000000e+03 1.2500000000000000e+03
ITEM: ATOMS id type x y z
307 8 -1218.53 270.034 250.069
308 8 -1214.82 271.35 249.67
305 8 -1224.75 272.132 247.323
306 19 -1221.6 270.163 248.126
303 8 -1227.38 273.046 251.518
309 18 -1211.58 270.814 248.511
314 8 -1199.9 268.215 250.38
315 2 -1198.01 270.683 248.408
313 7 -1202.94 266.035 249.545
310 8 -1207.91 270.296 250.231
311 8 -1208.17 266.597 250.742
312 16 -1205.19 265.696 252.74
316 4 -1198.03 272.725 252.099
301 15 -1231.34 278.066 249.127
297 16 -1244.72 275.143 247.953
298 16 -1241.52 276.925 249.003
296 16 -1248.17 276.958 246.323
299 18 -1237.79 276.836 247.388
300 16 -1234.62 276.269 249.153
302 8 -1230.05 275.819 252.379
304 8 -1228.5 273.503 248.006
317 9 -1195.55 274.826 253.413
351 15 -1137.05 271.758 267.993
350 2 -1136.23 270.323 271.492
318 2 -1195.06 276.209 257.272
319 2 -1192.07 275.858 259.897
322 3 -1186.31 277.208 268.775
321 11 -1187.04 274.788 265.64
320 8 -1190.05 274.7 263.04
326 17 -1176.74 286.239 265.897
327 15 -1174.55 289.002 265.261
323 8 -1186.21 280.888 267.8
324 8 -1182.58 281.891 268.994
325 10 -1180.36 284.731 267.51
328 11 -1173.61 292.033 263.295
331 10 -1172.98 291.773 271.813
341 3 -1161.16 276.866 271.95
342 9 -1158.02 274.595 271.835
343 10 -1154.92 276.655 272.439
340 16 -1164.67 276.076 270.318
338 14 -1170.85 277.868 270.525
339 1 -1167.25 278.087 268.441
337 3 -1170.7 281.559 270.246
333 15 -1169.77 287.933 268.332
335 12 -1164.38 284.585 270.071
334 11 -1166.08 287.199 267.625
336 12 -1167.32 282.422 271.877
332 16 -1169.71 290.063 271.598
344 7 -1151.25 276.62 273.2
354 1 -1134.84 279.848 270.397
353 16 -1135.18 276.716 268.199
352 16 -1138.55 275.036 266.215
330 16 -1172.72 293.617 268.435
329 3 -1171.42 294.103 265.233
346 7 -1146.68 273.252 277.036
348 19 -1139.69 272.296 277.394
349 1 -1138.94 271.154 274.07
347 12 -1143.12 274.132 277.054
345 11 -1149.86 273.472 274.693
360 18 -1135.35 274.665 288.223
361 13 -1133.4 277.62 290.214
358 12 -1135.92 276.273 281.564
359 16 -1134.32 275.864 284.754
356 1 -1137.83 279.717 274.947
357 15 -1136.01 277.926 277.861
355 14 -1135.24 282.033 273.491
365 11 -1126.06 277.369 292.138
367 2 -1120.36 276.773 290.097
366 3 -1124.16 277.102 289.069
362 6 -1132.84 278.719 293.959
363 4 -1131.01 275.365 295.533
364 16 -1127.83 274.505 293.728
371 10 -1121.2 282.299 301.463
370 3 -1120.98 282.946 297.448
372 14 -1118.47 283.998 303.454
368 1 -1120.63 278.771 293.636
369 4 -1123.14 280.461 295.759
373 15 -1114.67 283.818 304.484
374 14 -1111.8 282.734 302.153
376 4 -1106.13 281.327 297.773
381 14 -1097.72 288.313 300.951
380 17 -1101.24 287.956 299.539
375 15 -1108.67 282.704 300.083
379 2 -1103.85 287.303 297.094
378 15 -1107.57 286.725 295.474
377 2 -1107.49 282.997 294.52
382 4 -1096.28 284.909 301.575
385 16 -1088.96 286.227 308.355
383 13 -1092.93 283.37 302.795
384 9 -1091.22 286.215 305.008
386 11 -1087 288.719 310.637
447 8 -1001.76 272.221 322.182
445 7 -1005.56 269.241 320.923
446 3 -1005.52 273.1 321.431
444 9 -1005.99 266.71 318.06
442 14 -999.683 262.581 318.862
441 5 -999.231 265.23 321.907
440 9 -998.498 266.891 325.299
439 15 -1000.82 266.019 327.999
443 16 -1002.47 265.142 318.143
438 16 -1000.98 269.489 330.494
437 8 -1003.86 272.064 329.641
387 6 -1088 290.831 313.612
422 14 -1015.96 288.34 323.255
421 8 -1017.54 289.353 319.729
419 6 -1023.49 292.915 319.039
420 4 -1020.9 290.387 320.817
448 6 -999.348 274.359 320.272
434 16 -1003.56 279.418 324.428
435 8 -1002.16 278.012 327.487
436 11 -1004.53 275.72 329.444
424 4 -1009.98 288.229 325.698
426 8 -1003.49 285.377 323.66
427 2 -1001.69 287.98 320.939
428 8 -1003.85 286.988 317.746
432 11 -1003.27 277.881 317.569
433 9 -1002.17 279.901 320.601
431 15 -1007.09 279.157 317.931
429 4 -1007.82 286.89 317.283
430 7 -1007.52 283.145 317.241
425 4 -1006.68 286.245 325.818
423 11 -1012.84 286.282 323.768
388 16 -1087.46 294.419 314.588
389 16 -1085.29 296.775 316.515
390 11 -1082.25 297.11 319.003
392 4 -1076.34 298.594 321.309
391 10 -1078.54 297.82 318.293
393 10 -1075.14 296.558 324.464
396 1 -1067.86 301.785 327.088
394 13 -1072.52 298.332 326.357
395 2 -1068.69 298.496 325.314
399 4 -1067.43 306.466 322.356
401 10 -1063.27 303.802 319.012
400 17 -1066.29 306.544 318.92
397 6 -1065.57 305.163 327.337
398 3 -1065.14 308.226 325.283
402 12 -1060.46 302.24 316.651
403 1 -1057.53 304.066 314.873
404 12 -1054.26 304.055 313.438
410 12 -1038.35 308.316 320.488
406 19 -1047.77 305.348 316.42
405 17 -1051.31 304.067 316.175
407 8 -1045.05 303.009 317.757
408 12 -1042 303.298 319.642
409 12 -1040.58 305.858 322.036
411 8 -1036.56 311.259 321.193
412 7 -1032.78 312.031 322.107
417 15 -1030.3 295.341 319.061
418 13 -1027.12 293.372 320.369
413 16 -1031.49 308.521 323.012
414 16 -1029.01 305.737 322.33
415 11 -1028.37 302.028 320.899
416 14 -1030.25 298.93 319.197
54 16 722.149 231.889 214.484
53 8 723.553 234.216 212.033
51 1 720.576 238.702 213.814
52 3 721.364 237.073 210.628
42 1 722.144 249.267 214.701
58 16 726.558 238.76 212.725
59 1 728.589 239.192 209.298
60 18 729.304 242.885 208.941
61 11 730.957 243.9 212.286
62 14 733.2 242.205 214.802
63 15 736.29 243.596 214.37
64 1 739.074 245.622 212.541
65 15 741.413 242.67 211.107
69 3 748.823 241.146 202.772
68 9 745.621 239.228 203.884
70 10 751.497 243.372 203.954
71 7 754.698 242.031 205.118
72 4 756.965 243.184 207.993
66 1 743.699 239.836 210.36
67 17 743.714 237.748 207.015
74 10 759.757 245.211 212.434
73 6 756.141 245.682 211.006
85 7 778.699 241.265 212.801
75 11 762.545 243.715 211.106
76 8 765.427 241.233 210.543
77 16 768.232 241.541 213.019
86 6 781.949 242.844 212.608
89 4 791.901 240.962 210.289
87 7 785.579 242.781 212.085
88 7 788.527 242.612 209.796
90 15 794.423 243.775 209.105
91 11 793.064 247.14 208.236
92 6 794.653 250.215 209.096
93 12 793.531 251.159 212.611
55 16 723.962 233.114 217.908
32 9 701.561 251.445 226.28
50 1 719.036 238.833 217.032
49 17 715.277 239.111 217.648
34 9 708.147 253.453 224.451
33 9 705.189 251.639 225.662
48 3 713.038 241.832 216.632
47 3 709.713 243.304 215.582
46 3 708.534 247.07 216.137
44 14 714.976 251.011 217.087
45 10 711.224 249.941 217.111
43 1 718.493 249.529 215.516
56 1 726.282 236.273 218.001
57 8 724.832 239.338 216.416
41 15 723.365 250.699 218.527
84 7 775.413 241.256 214.966
78 6 765.929 243.05 215.372
79 12 762.686 241.641 216.462
81 12 767.067 237.048 216.99
80 1 763.262 237.958 217.316
82 16 770.171 237.687 218.837
83 7 772.71 240.024 216.985
95 7 790.38 251.101 218.991
96 11 787.817 250.161 221.927