 LAMMPS data file for protein binding
 
         448   atoms
         447   bonds

          20   atom types
           1   bond types
 
          -1250      1250        xlo xhi
          -1250      1250        ylo yhi
          -1250      1250        zlo zhi
 
 Masses

            1  71.0800018 
            2  156.10111 
            3  114.099998 
            4  115.099998 
            5  103.00919 
            6  129.100006 
            7  128.100006 
            8  57.0499992 
            9  137.100006 
           10  113.199997 
           11  113.199997 
           12  128.199997 
           13  131.199997 
           14  147.199997 
           15  97.1200027 
           16  87.0800018 
           17  101.099998 
           18  186.07931 
           19  163.199997 
           20  99.0699997 

 
 Atoms

        1          1          13        0.00     243.800     260.000     240.000 
        2          1           8        0.00     247.600     260.000     240.000 
        3          1           4       -1.00     251.400     260.000     240.000 
        4          1          19        0.00     255.200     260.000     240.000 
        5          1           8        0.00     259.000     260.000     240.000 
        6          1          14        0.00     262.800     260.000     240.000 
        7          1           8        0.00     266.600     260.000     240.000 
        8          1          20        0.00     270.400     260.000     240.000 
        9          1          11        0.00     274.200     260.000     240.000 
       10          1          20        0.00     278.000     260.000     240.000 
       11          1           7        0.00     281.800     260.000     240.000 
       12          1          16        0.00     285.600     260.000     240.000 
       13          1           3        0.00     289.400     260.000     240.000 
       14          1          17        0.00     293.200     260.000     240.000 
       15          1           8        0.00     297.000     260.000     240.000 
       16          1           3        0.00     300.800     260.000     240.000 
       17          1          12        1.00     304.600     260.000     240.000 
       18          1          16        0.00     308.400     260.000     240.000 
       19          1           1        0.00     312.200     260.000     240.000 
       20          1          14        0.00     316.000     260.000     240.000 
       21          1          15        0.00     319.800     260.000     240.000 
       22          1          20        0.00     323.600     260.000     240.000 
       23          1           2        1.00     327.400     260.000     240.000 
       24          1          14        0.00     331.200     260.000     240.000 
       25          1           9        0.50     335.000     260.000     240.000 
       26          1          15        0.00     338.800     260.000     240.000 
       27          1           9        0.50     342.600     260.000     240.000 
       28          1          11        0.00     346.400     260.000     240.000 
       29          1           7        0.00     350.200     260.000     240.000 
       30          1          15        0.00     354.000     260.000     240.000 
       31          1          15        0.00     357.800     260.000     240.000 
       32          1           9        0.50     361.600     260.000     240.000 
       33          1           9        0.50     365.400     260.000     240.000 
       34          1           9        0.50     369.200     260.000     240.000 
       35          1           7        0.00     373.000     260.000     240.000 
       36          1           3        0.00     376.800     260.000     240.000 
       37          1           1        0.00     380.600     260.000     240.000 
       38          1          17        0.00     384.400     260.000     240.000 
       39          1          15        0.00     388.200     260.000     240.000 
       40          1          16        0.00     392.000     260.000     240.000 
       41          1          15        0.00     395.800     260.000     240.000 
       42          1           1        0.00     399.600     260.000     240.000 
       43          1           1        0.00     403.400     260.000     240.000 
       44          1          14        0.00     407.200     260.000     240.000 
       45          1          10        0.00     411.000     260.000     240.000 
       46          1           3        0.00     414.800     260.000     240.000 
       47          1           3        0.00     418.600     260.000     240.000 
       48          1           3        0.00     422.400     260.000     240.000 
       49          1          17        0.00     426.200     260.000     240.000 
       50          1           1        0.00     430.000     260.000     240.000 
       51          1           1        0.00     433.800     260.000     240.000 
       52          1           3        0.00     437.600     260.000     240.000 
       53          1           8        0.00     441.400     260.000     240.000 
       54          1          16        0.00     445.200     260.000     240.000 
       55          1          16        0.00     449.000     260.000     240.000 
       56          1           1        0.00     452.800     260.000     240.000 
       57          1           8        0.00     456.600     260.000     240.000 
       58          1          16        0.00     460.400     260.000     240.000 
       59          1           1        0.00     464.200     260.000     240.000 
       60          1          18        0.00     468.000     260.000     240.000 
       61          1          11        0.00     471.800     260.000     240.000 
       62          1          14        0.00     475.600     260.000     240.000 
       63          1          15        0.00     479.400     260.000     240.000 
       64          1           1        0.00     483.200     260.000     240.000 
       65          1          15        0.00     487.000     260.000     240.000 
       66          1           1        0.00     490.800     260.000     240.000 
       67          1          17        0.00     494.600     260.000     240.000 
       68          1           9        0.50     498.400     260.000     240.000 
       69          1           3        0.00     502.200     260.000     240.000 
       70          1          10        0.00     506.000     260.000     240.000 
       71          1           7        0.00     509.800     260.000     240.000 
       72          1           4       -1.00     513.600     260.000     240.000 
       73          1           6       -1.00     517.400     260.000     240.000 
       74          1          10        0.00     521.200     260.000     240.000 
       75          1          11        0.00     525.000     260.000     240.000 
       76          1           8        0.00     528.800     260.000     240.000 
       77          1          16        0.00     532.600     260.000     240.000 
       78          1           6       -1.00     536.400     260.000     240.000 
       79          1          12        1.00     540.200     260.000     240.000 
       80          1           1        0.00     544.000     260.000     240.000 
       81          1          12        1.00     547.800     260.000     240.000 
       82          1          16        0.00     551.600     260.000     240.000 
       83          1           7        0.00     555.400     260.000     240.000 
       84          1           7        0.00     559.200     260.000     240.000 
       85          1           7        0.00     563.000     260.000     240.000 
       86          1           6       -1.00     566.800     260.000     240.000 
       87          1           7        0.00     570.600     260.000     240.000 
       88          1           7        0.00     574.400     260.000     240.000 
       89          1           4       -1.00     578.200     260.000     240.000 
       90          1          15        0.00     582.000     260.000     240.000 
       91          1          11        0.00     585.800     260.000     240.000 
       92          1           6       -1.00     589.600     260.000     240.000 
       93          1          12        1.00     593.400     260.000     240.000 
       94          1           7        0.00     597.200     260.000     240.000 
       95          1           7        0.00     601.000     260.000     240.000 
       96          1          11        0.00     604.800     260.000     240.000 
       97          1          16        0.00     608.600     260.000     240.000 
       98          1          15        0.00     612.400     260.000     240.000 
       99          1          16        0.00     616.200     260.000     240.000 
      100          1          15        0.00     620.000     260.000     240.000 
      101          1           8        0.00     623.800     260.000     240.000 
      102          1           7        0.00     627.600     260.000     240.000 
      103          1           6       -1.00     631.400     260.000     240.000 
      104          1           1        0.00     635.200     260.000     240.000 
      105          1           8        0.00     639.000     260.000     240.000 
      106          1          10        0.00     642.800     260.000     240.000 
      107          1          11        0.00     646.600     260.000     240.000 
      108          1          15        0.00     650.400     260.000     240.000 
      109          1           6       -1.00     654.200     260.000     240.000 
      110          1          17        0.00     658.000     260.000     240.000 
      111          1           6       -1.00     661.800     260.000     240.000 
      112          1          12        1.00     665.600     260.000     240.000 
      113          1           1        0.00     669.400     260.000     240.000 
      114          1          12        1.00     673.200     260.000     240.000 
      115          1          16        0.00     677.000     260.000     240.000 
      116          1           6       -1.00     680.800     260.000     240.000 
      117          1           6       -1.00     684.600     260.000     240.000 
      118          1           3        0.00     688.400     260.000     240.000 
      119          1           7        0.00     692.200     260.000     240.000 
      120          1           8        0.00     696.000     260.000     240.000 
      121          1           4       -1.00     699.800     260.000     240.000 
      122          1           3        0.00     703.600     260.000     240.000 
      123          1          16        0.00     707.400     260.000     240.000 
      124          1          16        0.00     711.200     260.000     240.000 
      125          1           6       -1.00     715.000     260.000     240.000 
      126          1           3        0.00     718.800     260.000     240.000 
      127          1           8        0.00     722.600     260.000     240.000 
      128          1           3        0.00     726.400     260.000     240.000 
      129          1           8        0.00     730.200     260.000     240.000 
      130          1          12        1.00     734.000     260.000     240.000 
      131          1           6       -1.00     737.800     260.000     240.000 
      132          1          12        1.00     741.600     260.000     240.000 
      133          1          10        0.00     745.400     260.000     240.000 
      134          1           2        1.00     749.200     260.000     240.000 
      135          1          10        0.00     753.000     260.000     240.000 
      136          1           6       -1.00     756.800     260.000     240.000 
      137          1          16        0.00     760.600     260.000     240.000 
      138          1          15        0.00     764.400     260.000     240.000 
      139          1          20        0.00     768.200     260.000     240.000 
      140          1          11        0.00     772.000     260.000     240.000 
      141          1          17        0.00     775.800     260.000     240.000 
      142          1           8        0.00     779.600     260.000     240.000 
      143          1          14        0.00     783.400     260.000     240.000 
      144          1           4       -1.00     787.200     260.000     240.000 
      145          1          19        0.00     791.000     260.000     240.000 
      146          1           7        0.00     794.800     260.000     240.000 
      147          1           6       -1.00     798.600     260.000     240.000 
      148          1           1        0.00     802.400     260.000     240.000 
      149          1          17        0.00     806.200     260.000     240.000 
      150          1           8        0.00     810.000     260.000     240.000 
      151          1          11        0.00     813.800     260.000     240.000 
      152          1           8        0.00     817.600     260.000     240.000 
      153          1          17        0.00     821.400     260.000     240.000 
      154          1          16        0.00     825.200     260.000     240.000 
      155          1          17        0.00     829.000     260.000     240.000 
      156          1           7        0.00     832.800     260.000     240.000 
      157          1          15        0.00     836.600     260.000     240.000 
      158          1          11        0.00     840.400     260.000     240.000 
      159          1          17        0.00     844.200     260.000     240.000 
      160          1          16        0.00     848.000     260.000     240.000 
      161          1          16        0.00     851.800     260.000     240.000 
      162          1           1        0.00     855.600     260.000     240.000 
      163          1          16        0.00     859.400     260.000     240.000 
      164          1          16        0.00     863.200     260.000     240.000 
      165          1          11        0.00     867.000     260.000     240.000 
      166          1          17        0.00     870.800     260.000     240.000 
      167          1           8        0.00     874.600     260.000     240.000 
      168          1          14        0.00     878.400     260.000     240.000 
      169          1          16        0.00     882.200     260.000     240.000 
      170          1           3        0.00     886.000     260.000     240.000 
      171          1          18        0.00     889.800     260.000     240.000 
      172          1          16        0.00     893.600     260.000     240.000 
      173          1           1        0.00     897.400     260.000     240.000 
      174          1           1        0.00     901.200     260.000     240.000 
      175          1          10        0.00     905.000     260.000     240.000 
      176          1           1        0.00     908.800     260.000     240.000 
      177          1          15        0.00     912.600     260.000     240.000 
      178          1          16        0.00     916.400     260.000     240.000 
      179          1          16        0.00     920.200     260.000     240.000 
      180          1          16        0.00     924.000     260.000     240.000 
      181          1          17        0.00     927.800     260.000     240.000 
      182          1          10        0.00     931.600     260.000     240.000 
      183          1          10        0.00     935.400     260.000     240.000 
      184          1           3        0.00     939.200     260.000     240.000 
      185          1           6       -1.00     943.000     260.000     240.000 
      186          1           4       -1.00     946.800     260.000     240.000 
      187          1           1        0.00     950.600     260.000     240.000 
      188          1          16        0.00     954.400     260.000     240.000 
      189          1          14        0.00     958.200     260.000     240.000 
      190          1          14        0.00     962.000     260.000     240.000 
      191          1           9        0.50     965.800     260.000     240.000 
      192          1           7        0.00     969.600     260.000     240.000 
      193          1           8        0.00     973.400     260.000     240.000 
      194          1           8        0.00     977.200     260.000     240.000 
      195          1          20        0.00     981.000     260.000     240.000 
      196          1          15        0.00     984.800     260.000     240.000 
      197          1           1        0.00     988.600     260.000     240.000 
      198          1           1        0.00     992.400     260.000     240.000 
      199          1          16        0.00     996.200     260.000     240.000 
      200          1           1        0.00     1000.000     260.000     240.000 
      201          1           3        0.00     1003.800     260.000     240.000 
      202          1           3        0.00     1007.600     260.000     240.000 
      203          1           8        0.00     1011.400     260.000     240.000 
      204          1           1        0.00     1015.200     260.000     240.000 
      205          1          11        0.00     1019.000     260.000     240.000 
      206          1          11        0.00     1022.800     260.000     240.000 
      207          1          14        0.00     1026.600     260.000     240.000 
      208          1           7        0.00     1030.400     260.000     240.000 
      209          1           3        0.00     1034.200     260.000     240.000 
      210          1          14        0.00     1038.000     260.000     240.000 
      211          1          15        0.00     1041.800     260.000     240.000 
      212          1           9        0.50     1045.600     260.000     240.000 
      213          1           9        0.50     1049.400     260.000     240.000 
      214          1          20        0.00     1053.200     260.000     240.000 
      215          1          16        0.00     1057.000     260.000     240.000 
      216          1          15        0.00     1060.800     260.000     240.000 
      217          1           8        0.00     1064.600     260.000     240.000 
      218          1          14        0.00     1068.400     260.000     240.000 
      219          1           8        0.00     1072.200     260.000     240.000 
      220          1           8        0.00     1076.000     260.000     240.000 
      221          1          16        0.00     1079.800     260.000     240.000 
      222          1          14        0.00     1083.600     260.000     240.000 
      223          1          16        0.00     1087.400     260.000     240.000 
      224          1          15        0.00     1091.200     260.000     240.000 
      225          1           7        0.00     1095.000     260.000     240.000 
      226          1          10        0.00     1098.800     260.000     240.000 
      227          1           8        0.00     1102.600     260.000     240.000 
      228          1          15        0.00     1106.400     260.000     240.000 
      229          1          11        0.00     1110.200     260.000     240.000 
      230          1          16        0.00     1114.000     260.000     240.000 
      231          1           7        0.00     1117.800     260.000     240.000 
      232          1           9        0.50     1121.600     260.000     240.000 
      233          1           9        0.50     1125.400     260.000     240.000 
      234          1          15        0.00     1129.200     260.000     240.000 
      235          1           9        0.50     1133.000     260.000     240.000 
      236          1           9        0.50     1136.800     260.000     240.000 
      237          1          15        0.00     1140.600     260.000     240.000 
      238          1           9        0.50     1144.400     260.000     240.000 
      239          1          14        0.00     1148.200     260.000     240.000 
      240          1           7        0.00     1152.000     260.000     240.000 
      241          1           9        0.50     1155.800     260.000     240.000 
      242          1           9        0.50     1159.600     260.000     240.000 
      243          1           9        0.50     1163.400     260.000     240.000 
      244          1          16        0.00     1167.200     260.000     240.000 
      245          1           7        0.00     1171.000     260.000     240.000 
      246          1           9        0.50     1174.800     260.000     240.000 
      247          1           7        0.00     1178.600     260.000     240.000 
      248          1           7        0.00     1182.400     260.000     240.000 
      249          1           7        0.00     1186.200     260.000     240.000 
      250          1           2        1.00     1190.000     260.000     240.000 
      251          1           2        1.00     1193.800     260.000     240.000 
      252          1          16        0.00     1197.600     260.000     240.000 
      253          1          15        0.00     1201.400     260.000     240.000 
      254          1           1        0.00     1205.200     260.000     240.000 
      255          1          16        0.00     1209.000     260.000     240.000 
      256          1          15        0.00     1212.800     260.000     240.000 
      257          1           9        0.50     1216.600     260.000     240.000 
      258          1          15        0.00     1220.400     260.000     240.000 
      259          1          15        0.00     1224.200     260.000     240.000 
      260          1          15        0.00     1228.000     260.000     240.000 
      261          1          14        0.00     1231.800     260.000     240.000 
      262          1          17        0.00     1235.600     260.000     240.000 
      263          1           9        0.50     1239.400     260.000     240.000 
      264          1           2        1.00     1243.200     260.000     240.000 
      265          1           3        0.00     1247.000     260.000     240.000 
      266          1           1        0.00     1250.800     260.000     240.000 
      267          1           1        0.00     1254.600     260.000     240.000 
      268          1          14        0.00     1258.400     260.000     240.000 
      269          1           3        0.00     1262.200     260.000     240.000 
      270          1           7        0.00     1266.000     260.000     240.000 
      271          1          11        0.00     1269.800     260.000     240.000 
      272          1          15        0.00     1273.600     260.000     240.000 
      273          1           9        0.50     1277.400     260.000     240.000 
      274          1          11        0.00     1281.200     260.000     240.000 
      275          1           1        0.00     1285.000     260.000     240.000 
      276          1           3        0.00     1288.800     260.000     240.000 
      277          1           3        0.00     1292.600     260.000     240.000 
      278          1          11        0.00     1296.400     260.000     240.000 
      279          1           3        0.00     1300.200     260.000     240.000 
      280          1          12        1.00     1304.000     260.000     240.000 
      281          1          15        0.00     1307.800     260.000     240.000 
      282          1          15        0.00     1311.600     260.000     240.000 
      283          1          16        0.00     1315.400     260.000     240.000 
      284          1          15        0.00     1319.200     260.000     240.000 
      285          1          18        0.00     1323.000     260.000     240.000 
      286          1          16        0.00     1326.800     260.000     240.000 
      287          1          16        0.00     1330.600     260.000     240.000 
      288          1          19        0.00     1334.400     260.000     240.000 
      289          1           7        0.00     1338.200     260.000     240.000 
      290          1          16        0.00     1342.000     260.000     240.000 
      291          1          15        0.00     1345.800     260.000     240.000 
      292          1          16        0.00     1349.600     260.000     240.000 
      293          1          15        0.00     1353.400     260.000     240.000 
      294          1          17        0.00     1357.200     260.000     240.000 
      295          1          15        0.00     1361.000     260.000     240.000 
      296          1          16        0.00     1364.800     260.000     240.000 
      297          1          16        0.00     1368.600     260.000     240.000 
      298          1          16        0.00     1372.400     260.000     240.000 
      299          1          18        0.00     1376.200     260.000     240.000 
      300          1          16        0.00     1380.000     260.000     240.000 
      301          1          15        0.00     1383.800     260.000     240.000 
      302          1           8        0.00     1387.600     260.000     240.000 
      303          1           8        0.00     1391.400     260.000     240.000 
      304          1           8        0.00     1395.200     260.000     240.000 
      305          1           8        0.00     1399.000     260.000     240.000 
      306          1          19        0.00     1402.800     260.000     240.000 
      307          1           8        0.00     1406.600     260.000     240.000 
      308          1           8        0.00     1410.400     260.000     240.000 
      309          1          18        0.00     1414.200     260.000     240.000 
      310          1           8        0.00     1418.000     260.000     240.000 
      311          1           8        0.00     1421.800     260.000     240.000 
      312          1          16        0.00     1425.600     260.000     240.000 
      313          1           7        0.00     1429.400     260.000     240.000 
      314          1           8        0.00     1433.200     260.000     240.000 
      315          1           2        1.00     1437.000     260.000     240.000 
      316          1           4       -1.00     1440.800     260.000     240.000 
      317          1           9        0.50     1444.600     260.000     240.000 
      318          1           2        1.00     1448.400     260.000     240.000 
      319          1           2        1.00     1452.200     260.000     240.000 
      320          1           8        0.00     1456.000     260.000     240.000 
      321          1          11        0.00     1459.800     260.000     240.000 
      322          1           3        0.00     1463.600     260.000     240.000 
      323          1           8        0.00     1467.400     260.000     240.000 
      324          1           8        0.00     1471.200     260.000     240.000 
      325          1          10        0.00     1475.000     260.000     240.000 
      326          1          17        0.00     1478.800     260.000     240.000 
      327          1          15        0.00     1482.600     260.000     240.000 
      328          1          11        0.00     1486.400     260.000     240.000 
      329          1           3        0.00     1490.200     260.000     240.000 
      330          1          16        0.00     1494.000     260.000     240.000 
      331          1          10        0.00     1497.800     260.000     240.000 
      332          1          16        0.00     1501.600     260.000     240.000 
      333          1          15        0.00     1505.400     260.000     240.000 
      334          1          11        0.00     1509.200     260.000     240.000 
      335          1          12        1.00     1513.000     260.000     240.000 
      336          1          12        1.00     1516.800     260.000     240.000 
      337          1           3        0.00     1520.600     260.000     240.000 
      338          1          14        0.00     1524.400     260.000     240.000 
      339          1           1        0.00     1528.200     260.000     240.000 
      340          1          16        0.00     1532.000     260.000     240.000 
      341          1           3        0.00     1535.800     260.000     240.000 
      342          1           9        0.50     1539.600     260.000     240.000 
      343          1          10        0.00     1543.400     260.000     240.000 
      344          1           7        0.00     1547.200     260.000     240.000 
      345          1          11        0.00     1551.000     260.000     240.000 
      346          1           7        0.00     1554.800     260.000     240.000 
      347          1          12        1.00     1558.600     260.000     240.000 
      348          1          19        0.00     1562.400     260.000     240.000 
      349          1           1        0.00     1566.200     260.000     240.000 
      350          1           2        1.00     1570.000     260.000     240.000 
      351          1          15        0.00     1573.800     260.000     240.000 
      352          1          16        0.00     1577.600     260.000     240.000 
      353          1          16        0.00     1581.400     260.000     240.000 