LAMMPS (7 Aug 2019)
OMP_NUM_THREADS environment is not set. Defaulting to 1 thread. (src/comm.cpp:93)
  using 1 OpenMP thread(s) per MPI task
# Multiprotein complexes

units       real
dimension   3
boundary    p p p
atom_style  full

bond_style  harmonic
pair_style  ljlambda 0.1 0.0 35.0
dielectric  80.0

read_data   data.data
  orthogonal box = (-2500 -2500 -2500) to (2500 2500 2500)
  2 by 2 by 2 MPI processor grid
  reading atoms ...
  93 atoms
  scanning bonds ...
  1 = max bonds/atom
  reading bonds ...
  92 bonds
  2 = max # of 1-2 neighbors
  2 = max # of 1-3 neighbors
  4 = max # of 1-4 neighbors
  6 = max # of special neighbors
  special bonds CPU = 0.000571912 secs
  read_data CPU = 0.00552204 secs

# pairwise coefficients

bond_coeff          1     9.600     3.8

pair_coeff          *       *       0.000000   0.000    0.000000   0.000   0.000
pair_coeff          1       1       0.200000   5.040    0.729730  15.120   0.000
pair_coeff          1       2       0.200000   5.800    0.364865  17.400   0.000
pair_coeff          1       3       0.200000   5.360    0.581081  16.080   0.000
pair_coeff          1       4       0.200000   5.310    0.554054  15.930   0.000
pair_coeff          1       5       0.200000   5.260    0.662162  15.780   0.000
pair_coeff          1       6       0.200000   5.480    0.594595  16.440   0.000
pair_coeff          1       7       0.200000   5.530    0.621622  16.590   0.000
pair_coeff          1       8       0.200000   4.770    0.689190  14.310   0.000
pair_coeff          1       9       0.200000   5.560    0.621622  16.680   0.000
pair_coeff          1      10       0.200000   5.610    0.851352  16.830   0.000
pair_coeff          1      11       0.200000   5.610    0.851352  16.830   0.000
pair_coeff          1      12       0.200000   5.700    0.621622  17.100   0.000
pair_coeff          1      13       0.200000   5.610    0.783784  16.830   0.000
pair_coeff          1      14       0.200000   5.700    0.864865  17.100   0.000
pair_coeff          1      15       0.200000   5.300    0.864865  15.900   0.000
pair_coeff          1      16       0.200000   5.110    0.662162  15.330   0.000
pair_coeff          1      17       0.200000   5.330    0.702703  15.990   0.000
pair_coeff          1      18       0.200000   5.910    0.837838  17.730   0.000
pair_coeff          1      19       0.200000   5.750    0.797297  17.250   0.000
pair_coeff          1      20       0.200000   5.450    0.810811  16.350   0.000
pair_coeff          2       2       0.200000   6.560    0.000000  19.680  35.000
pair_coeff          2       3       0.200000   6.120    0.216216  18.360   0.000
pair_coeff          2       4       0.200000   6.070    0.189189  18.210  35.000
pair_coeff          2       5       0.200000   6.020    0.297297  18.060   0.000
pair_coeff          2       6       0.200000   6.240    0.229730  18.720  35.000
pair_coeff          2       7       0.200000   6.290    0.256757  18.870   0.000
pair_coeff          2       8       0.200000   5.530    0.324325  16.590   0.000
pair_coeff          2       9       0.200000   6.320    0.256757  18.960  35.000
pair_coeff          2      10       0.200000   6.370    0.486486  19.110   0.000
pair_coeff          2      11       0.200000   6.370    0.486486  19.110   0.000
pair_coeff          2      12       0.200000   6.460    0.256757  19.380  35.000
pair_coeff          2      13       0.200000   6.370    0.418919  19.110   0.000
pair_coeff          2      14       0.200000   6.460    0.500000  19.380   0.000
pair_coeff          2      15       0.200000   6.060    0.500000  18.180   0.000
pair_coeff          2      16       0.200000   5.870    0.297297  17.610   0.000
pair_coeff          2      17       0.200000   6.090    0.337838  18.270   0.000
pair_coeff          2      18       0.200000   6.670    0.472973  20.010   0.000
pair_coeff          2      19       0.200000   6.510    0.432432  19.530   0.000
pair_coeff          2      20       0.200000   6.210    0.445946  18.630   0.000
pair_coeff          3       3       0.200000   5.680    0.432432  17.040   0.000
pair_coeff          3       4       0.200000   5.630    0.405405  16.890   0.000
pair_coeff          3       5       0.200000   5.580    0.513513  16.740   0.000
pair_coeff          3       6       0.200000   5.800    0.445945  17.400   0.000
pair_coeff          3       7       0.200000   5.850    0.472973  17.550   0.000
pair_coeff          3       8       0.200000   5.090    0.540540  15.270   0.000
pair_coeff          3       9       0.200000   5.880    0.472973  17.640   0.000
pair_coeff          3      10       0.200000   5.930    0.702703  17.790   0.000
pair_coeff          3      11       0.200000   5.930    0.702703  17.790   0.000
pair_coeff          3      12       0.200000   6.020    0.472973  18.060   0.000
pair_coeff          3      13       0.200000   5.930    0.635135  17.790   0.000
pair_coeff          3      14       0.200000   6.020    0.716216  18.060   0.000
pair_coeff          3      15       0.200000   5.620    0.716216  16.860   0.000
pair_coeff          3      16       0.200000   5.430    0.513513  16.290   0.000
pair_coeff          3      17       0.200000   5.650    0.554054  16.950   0.000
pair_coeff          3      18       0.200000   6.230    0.689189  18.690   0.000
pair_coeff          3      19       0.200000   6.070    0.648648  18.210   0.000
pair_coeff          3      20       0.200000   5.770    0.662162  17.310   0.000
pair_coeff          4       4       0.200000   5.580    0.378378  16.740  35.000
pair_coeff          4       5       0.200000   5.530    0.486486  16.590   0.000
pair_coeff          4       6       0.200000   5.750    0.418918  17.250  35.000
pair_coeff          4       7       0.200000   5.800    0.445946  17.400   0.000
pair_coeff          4       8       0.200000   5.040    0.513513  15.120   0.000
pair_coeff          4       9       0.200000   5.830    0.445946  17.490  35.000
pair_coeff          4      10       0.200000   5.880    0.675675  17.640   0.000
pair_coeff          4      11       0.200000   5.880    0.675675  17.640   0.000
pair_coeff          4      12       0.200000   5.970    0.445946  17.910  35.000
pair_coeff          4      13       0.200000   5.880    0.608108  17.640   0.000
pair_coeff          4      14       0.200000   5.970    0.689189  17.910   0.000
pair_coeff          4      15       0.200000   5.570    0.689189  16.710   0.000
pair_coeff          4      16       0.200000   5.380    0.486486  16.140   0.000
pair_coeff          4      17       0.200000   5.600    0.527027  16.800   0.000
pair_coeff          4      18       0.200000   6.180    0.662162  18.540   0.000
pair_coeff          4      19       0.200000   6.020    0.621622  18.060   0.000
pair_coeff          4      20       0.200000   5.720    0.635135  17.160   0.000
pair_coeff          5       5       0.200000   5.480    0.594595  16.440   0.000
pair_coeff          5       6       0.200000   5.700    0.527027  17.100   0.000
pair_coeff          5       7       0.200000   5.750    0.554055  17.250   0.000
pair_coeff          5       8       0.200000   4.990    0.621622  14.970   0.000
pair_coeff          5       9       0.200000   5.780    0.554055  17.340   0.000
pair_coeff          5      10       0.200000   5.830    0.783784  17.490   0.000
pair_coeff          5      11       0.200000   5.830    0.783784  17.490   0.000
pair_coeff          5      12       0.200000   5.920    0.554055  17.760   0.000
pair_coeff          5      13       0.200000   5.830    0.716217  17.490   0.000
pair_coeff          5      14       0.200000   5.920    0.797297  17.760   0.000
pair_coeff          5      15       0.200000   5.520    0.797297  16.560   0.000
pair_coeff          5      16       0.200000   5.330    0.594595  15.990   0.000
pair_coeff          5      17       0.200000   5.550    0.635136  16.650   0.000
pair_coeff          5      18       0.200000   6.130    0.770270  18.390   0.000
pair_coeff          5      19       0.200000   5.970    0.729730  17.910   0.000
pair_coeff          5      20       0.200000   5.670    0.743243  17.010   0.000
pair_coeff          6       6       0.200000   5.920    0.459459  17.760  35.000
pair_coeff          6       7       0.200000   5.970    0.486487  17.910   0.000
pair_coeff          6       8       0.200000   5.210    0.554054  15.630   0.000
pair_coeff          6       9       0.200000   6.000    0.486487  18.000  35.000
pair_coeff          6      10       0.200000   6.050    0.716216  18.150   0.000
pair_coeff          6      11       0.200000   6.050    0.716216  18.150   0.000
pair_coeff          6      12       0.200000   6.140    0.486487  18.420  35.000
pair_coeff          6      13       0.200000   6.050    0.648648  18.150   0.000
pair_coeff          6      14       0.200000   6.140    0.729730  18.420   0.000
pair_coeff          6      15       0.200000   5.740    0.729730  17.220   0.000
pair_coeff          6      16       0.200000   5.550    0.527027  16.650   0.000
pair_coeff          6      17       0.200000   5.770    0.567568  17.310   0.000
pair_coeff          6      18       0.200000   6.350    0.702703  19.050   0.000
pair_coeff          6      19       0.200000   6.190    0.662162  18.570   0.000
pair_coeff          6      20       0.200000   5.890    0.675675  17.670   0.000
pair_coeff          7       7       0.200000   6.020    0.513514  18.060   0.000
pair_coeff          7       8       0.200000   5.260    0.581082  15.780   0.000
pair_coeff          7       9       0.200000   6.050    0.513514  18.150   0.000
pair_coeff          7      10       0.200000   6.100    0.743243  18.300   0.000
pair_coeff          7      11       0.200000   6.100    0.743243  18.300   0.000
pair_coeff          7      12       0.200000   6.190    0.513514  18.570   0.000
pair_coeff          7      13       0.200000   6.100    0.675676  18.300   0.000
pair_coeff          7      14       0.200000   6.190    0.756757  18.570   0.000
pair_coeff          7      15       0.200000   5.790    0.756757  17.370   0.000
pair_coeff          7      16       0.200000   5.600    0.554055  16.800   0.000
pair_coeff          7      17       0.200000   5.820    0.594595  17.460   0.000
pair_coeff          7      18       0.200000   6.400    0.729730  19.200   0.000
pair_coeff          7      19       0.200000   6.240    0.689190  18.720   0.000
pair_coeff          7      20       0.200000   5.940    0.702703  17.820   0.000
pair_coeff          8       8       0.200000   4.500    0.648649  13.500   0.000
pair_coeff          8       9       0.200000   5.290    0.581082  15.870   0.000
pair_coeff          8      10       0.200000   5.340    0.810811  16.020   0.000
pair_coeff          8      11       0.200000   5.340    0.810811  16.020   0.000
pair_coeff          8      12       0.200000   5.430    0.581082  16.290   0.000
pair_coeff          8      13       0.200000   5.340    0.743243  16.020   0.000
pair_coeff          8      14       0.200000   5.430    0.824325  16.290   0.000
pair_coeff          8      15       0.200000   5.030    0.824325  15.090   0.000
pair_coeff          8      16       0.200000   4.840    0.621622  14.520   0.000
pair_coeff          8      17       0.200000   5.060    0.662162  15.180   0.000
pair_coeff          8      18       0.200000   5.640    0.797297  16.920   0.000
pair_coeff          8      19       0.200000   5.480    0.756757  16.440   0.000
pair_coeff          8      20       0.200000   5.180    0.770271  15.540   0.000
pair_coeff          9       9       0.200000   6.080    0.513514  18.240  35.000
pair_coeff          9      10       0.200000   6.130    0.743243  18.390   0.000
pair_coeff          9      11       0.200000   6.130    0.743243  18.390   0.000
pair_coeff          9      12       0.200000   6.220    0.513514  18.660  35.000
pair_coeff          9      13       0.200000   6.130    0.675676  18.390   0.000
pair_coeff          9      14       0.200000   6.220    0.756757  18.660   0.000
pair_coeff          9      15       0.200000   5.820    0.756757  17.460   0.000
pair_coeff          9      16       0.200000   5.630    0.554055  16.890   0.000
pair_coeff          9      17       0.200000   5.850    0.594595  17.550   0.000
pair_coeff          9      18       0.200000   6.430    0.729730  19.290   0.000
pair_coeff          9      19       0.200000   6.270    0.689190  18.810   0.000
pair_coeff          9      20       0.200000   5.970    0.702703  17.910   0.000
pair_coeff         10      10       0.200000   6.180    0.972973  18.540   0.000
pair_coeff         10      11       0.200000   6.180    0.972973  18.540   0.000
pair_coeff         10      12       0.200000   6.270    0.743243  18.810   0.000
pair_coeff         10      13       0.200000   6.180    0.905405  18.540   0.000
pair_coeff         10      14       0.200000   6.270    0.986487  18.810   0.000
pair_coeff         10      15       0.200000   5.870    0.986487  17.610   0.000
pair_coeff         10      16       0.200000   5.680    0.783784  17.040   0.000
pair_coeff         10      17       0.200000   5.900    0.824325  17.700   0.000
pair_coeff         10      18       0.200000   6.480    0.959459  19.440   0.000
pair_coeff         10      19       0.200000   6.320    0.918919  18.960   0.000
pair_coeff         10      20       0.200000   6.020    0.932432  18.060   0.000
pair_coeff         11      11       0.200000   6.180    0.972973  18.540   0.000
pair_coeff         11      12       0.200000   6.270    0.743243  18.810   0.000
pair_coeff         11      13       0.200000   6.180    0.905405  18.540   0.000
pair_coeff         11      14       0.200000   6.270    0.986487  18.810   0.000
pair_coeff         11      15       0.200000   5.870    0.986487  17.610   0.000
pair_coeff         11      16       0.200000   5.680    0.783784  17.040   0.000
pair_coeff         11      17       0.200000   5.900    0.824325  17.700   0.000
pair_coeff         11      18       0.200000   6.480    0.959459  19.440   0.000
pair_coeff         11      19       0.200000   6.320    0.918919  18.960   0.000
pair_coeff         11      20       0.200000   6.020    0.932432  18.060   0.000
pair_coeff         12      12       0.200000   6.360    0.513514  19.080  35.000
pair_coeff         12      13       0.200000   6.270    0.675676  18.810   0.000
pair_coeff         12      14       0.200000   6.360    0.756757  19.080   0.000
pair_coeff         12      15       0.200000   5.960    0.756757  17.880   0.000
pair_coeff         12      16       0.200000   5.770    0.554055  17.310   0.000
pair_coeff         12      17       0.200000   5.990    0.594595  17.970   0.000
pair_coeff         12      18       0.200000   6.570    0.729730  19.710   0.000
pair_coeff         12      19       0.200000   6.410    0.689190  19.230   0.000
pair_coeff         12      20       0.200000   6.110    0.702703  18.330   0.000
pair_coeff         13      13       0.200000   6.180    0.837838  18.540   0.000
pair_coeff         13      14       0.200000   6.270    0.918919  18.810   0.000
pair_coeff         13      15       0.200000   5.870    0.918919  17.610   0.000
pair_coeff         13      16       0.200000   5.680    0.716217  17.040   0.000
pair_coeff         13      17       0.200000   5.900    0.756757  17.700   0.000
pair_coeff         13      18       0.200000   6.480    0.891892  19.440   0.000
pair_coeff         13      19       0.200000   6.320    0.851352  18.960   0.000
pair_coeff         13      20       0.200000   6.020    0.864865  18.060   0.000
pair_coeff         14      14       0.200000   6.360    1.000000  19.080   0.000
pair_coeff         14      15       0.200000   5.960    1.000000  17.880   0.000
pair_coeff         14      16       0.200000   5.770    0.797297  17.310   0.000
pair_coeff         14      17       0.200000   5.990    0.837838  17.970   0.000
pair_coeff         14      18       0.200000   6.570    0.972973  19.710   0.000
pair_coeff         14      19       0.200000   6.410    0.932432  19.230   0.000
pair_coeff         14      20       0.200000   6.110    0.945946  18.330   0.000
pair_coeff         15      15       0.200000   5.560    1.000000  16.680   0.000
pair_coeff         15      16       0.200000   5.370    0.797297  16.110   0.000
pair_coeff         15      17       0.200000   5.590    0.837838  16.770   0.000
pair_coeff         15      18       0.200000   6.170    0.972973  18.510   0.000
pair_coeff         15      19       0.200000   6.010    0.932432  18.030   0.000
pair_coeff         15      20       0.200000   5.710    0.945946  17.130   0.000
pair_coeff         16      16       0.200000   5.180    0.594595  15.540   0.000
pair_coeff         16      17       0.200000   5.400    0.635136  16.200   0.000
pair_coeff         16      18       0.200000   5.980    0.770270  17.940   0.000
pair_coeff         16      19       0.200000   5.820    0.729730  17.460   0.000
pair_coeff         16      20       0.200000   5.520    0.743243  16.560   0.000
pair_coeff         17      17       0.200000   5.620    0.675676  16.860   0.000
pair_coeff         17      18       0.200000   6.200    0.810811  18.600   0.000
pair_coeff         17      19       0.200000   6.040    0.770271  18.120   0.000
pair_coeff         17      20       0.200000   5.740    0.783784  17.220   0.000
pair_coeff         18      18       0.200000   6.780    0.945946  20.340   0.000
pair_coeff         18      19       0.200000   6.620    0.905405  19.860   0.000
pair_coeff         18      20       0.200000   6.320    0.918919  18.960   0.000
pair_coeff         19      19       0.200000   6.460    0.864865  19.380   0.000
pair_coeff         19      20       0.200000   6.160    0.878378  18.480   0.000
pair_coeff         20      20       0.200000   5.860    0.891892  17.580   0.000


special_bonds fene
  2 = max # of 1-2 neighbors
  6 = max # of special neighbors
  special bonds CPU = 0.000139375 secs
neighbor  3.5 multi
neigh_modify  every 10 delay 0

comm_style    tiled
timestep      10.0

velocity      all create 300 1234
fix           fxnve  all nve
fix           fxlange all langevin 300 300 50000 12345

thermo        50000
thermo_style  custom step pe ke temp
thermo_modify flush yes

dump          dcd_file all dcd 50000 dcd_traj.dcd
dump_modify   dcd_file unwrap yes

run           500000
Neighbor list info ...
  update every 10 steps, delay 0 steps, check yes
  max neighbors/atom: 2000, page size: 100000
  master list distance cutoff = 38.5
  ghost atom cutoff = 38.5
  binsize = 8.5, bins = 589 589 589
  1 neighbor lists, perpetual/occasional/extra = 1 0 0
  (1) pair ljlambda, perpetual
      attributes: half, newton on
      pair build: half/multi/newton
      stencil: half/multi/3d/newton
      bin: standard
Per MPI rank memory allocation (min/avg/max) = 110 | 110.8 | 116.1 Mbytes
Step PotEng KinEng Temp 
       0   -7.3497891    82.270357          300 
   50000    6.1430811    81.190616    296.06271 
  100000    10.177267    99.716634    363.61809 
  150000     13.14883    90.496449    329.99656 
  200000    11.496503     94.49386    344.57317 
  250000    7.1437397    78.585069    286.56155 
  300000     13.82111    79.103898    288.45346 
  350000    15.027681    87.390551    318.67086 
  400000    8.4722124    97.609028    355.93267 
  450000    6.0286815    94.761662    345.54972 
  500000    15.161478    79.027009    288.17308 
Loop time of 1395.59 on 8 procs for 500000 steps with 93 atoms

Performance: 309.547 ns/day, 0.078 hours/ns, 358.272 timesteps/s
95.3% CPU use with 8 MPI tasks x 1 OpenMP threads

MPI task timing breakdown:
Section |  min time  |  avg time  |  max time  |%varavg| %total
---------------------------------------------------------------
Pair    | 0.047803   | 2.4658     | 19.332     | 406.0 |  0.18
Bond    | 0.047379   | 0.27056    | 1.7521     | 107.7 |  0.02
Neigh   | 1354.4     | 1354.5     | 1354.5     |   0.0 | 97.05
Comm    | 14.938     | 36.771     | 39.992     | 136.1 |  2.63
Output  | 0.0033151  | 0.0034377  | 0.0036825  |   0.2 |  0.00
Modify  | 0.18084    | 0.76285    | 4.6348     | 167.6 |  0.05
Other   |            | 0.865      |            |       |  0.06

Nlocal:    11.625 ave 93 max 0 min
Histogram: 7 0 0 0 0 0 0 0 0 1
Nghost:    0 ave 0 max 0 min
Histogram: 8 0 0 0 0 0 0 0 0 0
Neighs:    132.625 ave 1061 max 0 min
Histogram: 7 0 0 0 0 0 0 0 0 1

Total # of neighbors = 1061
Ave neighs/atom = 11.4086
Ave special neighs/atom = 1.97849
Neighbor list builds = 12550
Dangerous builds = 0

Please see the log.cite file for references relevant to this simulation

Total wall time: 0:23:15
